% Model:              SPAD_guard ring_polygate_type3_curve.mph
% Version:            COMSOL 6.2.0.415
% Date:               Dec 4 2024, 20:28
% Dimension:          2
% Nodes:              2398
% Expressions:        3
% Description:        Streamline
% X                       Y                        Streamline               Ionization coefficient, electrons Ionization coefficient, holes
0.058123968657514985      2.033190789631311        0                        0                        0
0.05820390967368223       2.0374766083417324       0                        0                        0
0.058331099116129076      2.044330934908216        0                        0                        0
0.05848490721158611       2.052661966244252        0                        0                        0
0.05849621446007289       2.053250346005291        0                        0                        0
0.05852651542004393       2.05466198829668         0                        0                        0
0.05860569754485982       2.057848700173203        0                        0                        0
0.05873041387842692       2.0622562787139316       0                        0                        0
0.058918207655663926      2.0683547060345036       0                        0                        0
0.058923093126345055      2.0685090246535975       0                        0                        0
0.05898198987008786       2.070499847723644        0                        0                        0
0.059055843286224166      2.0733162228160125       0                        0                        0
0.0591508690714137        2.077302112460746        0                        0                        0
0.05927587268701345       2.0829447923589073       0                        0                        0
0.05944332839348285       2.090934563312708        0                        0                        0
0.05967090786821926       2.1022493423385993       0                        0                        0
0.05969346916329241       2.103351247139551        0                        0                        0
0.05975569210993974       2.1061426226816873       0                        0                        0
0.059849989841551814      2.1100328085143234       0                        0                        0
0.059989024639487826      2.1154553842320647       0                        0                        0
0.06019045522333061       2.123015016425468        0                        0                        0
0.06020438793300163       2.123537237922263        0                        0                        0
0.060285451218889084      2.1268218628579456       0                        0                        0
0.060386338721607584      2.1314530384183397       0                        0                        0
0.06051518484847484       2.1379847805453087       0                        0                        0
0.06068347078594793       2.1471990491156197       0                        -9.17074964866478E-155   -1.3959201394521982E-84
0.060696352894830184      2.147953563655088        0                        3.806036321286133E-141   5.793335284366211E-71
0.06075011738009052       2.15159863095902         0                        2.217299334879527E-140   3.3750488404216104E-70
0.06080775811411625       2.156580292072342        0                        4.72373671925711E-140    7.190207423055002E-70
0.06087070023130553       2.163387330062868        0                        8.144837466693381E-140   1.2397615339960204E-69
0.06094089002598944       2.1726872732076914       0                        1.2027769772152115E-38   7.128345171188327E-46
0.060972380974881564      2.178616196267746        0                        4.605131305534032E-22    2.729264537511847E-29
0.06099514109332381       2.1881710528384333       0                        -9.38121964749197E-19    7.133697081655802E-29
0.06099680779764177       2.190362994371498        0                        2.500290469615713E-4     6.102607940627894E-18
0.06099842229273062       2.1975617582867057       0                        0.0010709698365324925    2.613979898720362E-17
0.06099420289581374       2.206504545228464        0                        0.0020904693942396515    5.10233322081011E-17
0.06098272970345136       2.2176138482660206       0                        0.0033566286296015106    8.192742517139653E-17
0.06097370699845862       2.225252230284981        0                        0.5188888938959351       2.580823844480462E-6
0.060970566360506684      2.22822833752645         0                        32.28273905478437        0.001376519364203586
0.06096184813321079       2.2370606262395594       0                        126.55223495594322       0.00545412796862533
0.060952877725766505      2.247081891448227        0                        233.51644870101453       0.010080846764918026
0.060943621412285945      2.2584521891922202       0                        354.884301821744         0.015330595177667194
0.06094342281400081       2.258708682746401        0                        379.76546491965024       0.017871111290076
0.06094257269596053       2.259786756915269        0                        1272.7450615638859       0.8051916087198202
0.06093803312127262       2.2650398501884523       0                        5049.043512330458        3.913534883427392
0.06092610267140921       2.276563026251524        0                        13333.29309106697        10.73277476752897
0.060910106541352524      2.2893846353054075       0                        22551.796677175273       18.32148862319149
0.060900802258861464      2.2963625912701304       0                        47852.16876351014        163.57631919596844
0.060888948094966214      2.305622150820135        0                        103537.06299350275       929.2597236661118
0.06087499311078371       2.317245904536639        0                        173438.52072829028       1890.4003294997417
0.060869325405082664      2.3220858458691325       0                        237941.0580463676        4044.408787420386
0.06085917953578125       2.330524225892095        0                        350400.1447435367        7799.876225928106
0.06085760003593392       2.331816222367308        0                        373023.47943381406       8901.196869972568
0.060844712378937654      2.3422950960053335       0                        556512.5904788873        17833.59361474444
0.06084068297853901       2.345468149639199        0                        640658.471161907         24981.14872855832
0.06083025267685845       2.3530331991219984       0                        841274.521273439         42021.83899588318
0.060818225620255496      2.3609119471532733       0                        1050208.472336869        59768.892356230965
0.060812042977989283      2.3647428172813676       0                        1168933.4652630743       72489.51465764064
0.0608052951118893        2.368880803666258        0                        1328920.4873348814       96700.32168568409
0.060793958053099         2.3758127321755724       0                        1596929.731526134        137258.10348457965
0.06077867989288081       2.385270218333054        0                        1956282.8263488263       190398.0629774605
0.060773050471379486      2.3887443233542927       0                        2108095.0712637026       220582.86277267063
0.06076231098799777       2.395221421046319        0                        2420691.011118117        285811.1252018799
0.06074683069402806       2.404431588850393        0                        2865190.7494891444       378563.2702559252
0.060737576080649         2.4093288618988145       0                        3125447.299746421        443240.54127042065
0.06072323898450843       2.4155031503055646       0                        3453578.8982469924       524783.5914725602
0.06070558718382806       2.421909730114435        0                        3812387.2616050704       618218.285709782
0.060701723672806004      2.423191638586089        0                        3888435.153578449        640673.9139838878
0.060684180462434276      2.428470220716215        0                        4201591.345857816        733141.9878739899
0.060663635537123076      2.4338567045885027       0                        4521164.708558282        827502.4225990247
0.06064981274514158       2.437185482050342        0                        4724434.024949872        886268.7544990138
0.0606431134717765        2.4387772311129017       0                        4815068.523683977        920039.3557658219
0.06062086100995784       2.444121707591587        0                        5148804.781658002        1041072.7982668208
0.060591655470841554      2.4511583143005193       0                        5588205.538539085        1200426.8771536804
0.060590998632729584      2.451316691727998        0                        5596301.476945565        1204145.4029885007
0.06057422651302877       2.4552610598484215       0                        5797933.150827149        1296755.2683728077
0.06055643732129668       2.4592563731980004       0                        6002175.739759329        1390562.2240464918
0.06054137990632281       2.4625204292899268       0                        6216840.354601863        1466843.556899558
0.060534878166746416      2.46389906267434         0                        6304489.793841054        1500423.3168526562
0.060518871964374624      2.467194690357998        0                        6514027.801429195        1580696.273536472
0.060493996723832925      2.4720782030804713       0                        6884658.913267703        1700378.241195567
0.06048940352699508       2.472954931888499        0                        6934788.416854735        1723894.2785303348
0.060471950490074824      2.476265056055609        0                        7124054.499291506        1812680.0699453861
0.060444549262949496      2.4813607276554186       0                        7439238.284926267        1948605.92974407
0.06043294464228301       2.4835247928552477       0                        7541602.887180403        1818334.4526845517
0.060415879143615556      2.4868525937036536       0                        7699007.1951568          1618007.789243648
0.060397024595294876      2.490678557620898        0                        7724012.269297734        1327770.7523577288
0.060394982514372864      2.491098843534974        0                        7478417.60606925         1302094.9904648112
0.06037908210278163       2.494433490810724        0                        5529785.312863799        1098368.5412747879
0.060353066797969146      2.5                      0                        2218560.3956769756       809805.7668748752
0.06031559650443219       2.502685513850119        0                        4241461.709422303        4262.103830726973
0.06029090368341389       2.5046056293402534       0                        3014859.8989925594       2876.595070987111
0.06028209118466212       2.505349567261474        0                        2539706.972891985        2339.6987506190303
0.06026554085114586       2.5071879133257933       0                        1243565.3019023633       1145.6314504901281
0.060262344824628125      2.508196944295493        0                        532162.0791695297        490.2529957390989
0.060266477244859736      2.508750795463419        0                        141699.74942130127       130.54054275660258
0.060270166694400704      2.5089518014143657       0                        1.8015995772446424E-10   6.2597545047819435E-111
0.060335018266327534      2.511616404970986        0                        5.162730964986794E-11    1.7758467217508935E-111
0.06036120974762706       2.5126725560338783       0                        7.219809525132602E-13    2.1145340646300898E-127
0.06042038631609481       2.5150800046046218       0                        3.8939595581731757E-13   8.5767131E-316
0.06045145616705862       2.5163959572101398       0                        2.0759864171552777E-13   4.57250255E-316
0.06046716281329338       2.5171152768951974       0                        1.082248074701944E-13    2.38372564E-316
0.06047447210654825       2.5175084654243998       0                        5.3905250284486994E-14   1.1873001E-316
0.060477191716689         2.517723384323131        0                        2.4213237135154645E-14   5.333132E-317
0.06047740298994212       2.5178408575768474       0                        7.983118482618306E-15    1.7583366E-317
0.0604765787199523        2.517898635742051        0                        -2.7456145969950306E-28  0
0.06042363121546079       2.519864281349026        0                        0                        0
0.060371819758524375      2.521265712558559        0                        0                        0
0.060336398510469735      2.5220046722660117       0                        0                        0
0.060238532481262555      2.5235390192576723       0                        0                        0
0.06016449854034014       2.524366193327186        0                        0                        0
0.06010339824237017       2.5248084208062367       0                        0                        0
0.06004929922274119       2.5250410973977697       0                        0                        0
0.059998972276789575      2.5251596952760735       0                        0                        0
0.05995349020118328       2.5252150545240575       0                        0                        0
0.17495921443104873       2.032957730290961        1                        0                        0
0.1752627751981164        2.0375134573973317       1                        0                        0
0.17568574776507823       2.0440951894343256       1                        0                        0
0.1762137789437812        2.0525766195946833       1                        0                        0
0.1762342333348461        2.052910116737985        1                        0                        0
0.1762677206544294        2.0534567244388326       1                        0                        0
0.1763016406885448        2.0540111603617666       1                        0                        0
0.17631426128930583       2.054218702005919        1                        0                        0
0.17638356048251158       2.0553870316822422       1                        0                        0
0.17647735535081177       2.057026532081104        1                        0                        0
0.17660550352657503       2.059326829610542        1                        0                        0
0.17678182991960423       2.06255386724031         1                        0                        0
0.17702572337751768       2.067080618671114        1                        0                        0
0.17736437593400425       2.0734301636502437       1                        0                        0
0.17783592325923334       2.082336099269121        1                        0                        0
0.17849384900794596       2.094827264237941        1                        0                        0
0.17852131902586          2.095351829403663        1                        0                        0
0.17892573860774702       2.103375058055282        1                        0                        0
0.1789459429379769        2.103802555951998        1                        0                        0
0.1789936397782008        2.104875975977642        1                        0                        0
0.179055657090831         2.1063730772107023       1                        0                        0
0.17913763267989463       2.108460662730185        1                        0                        0
0.17924742394952703       2.1113712058887257       1                        0                        0
0.1793959817592225        2.1154287046605074       1                        0                        0
0.17959856831538107       2.121084714830679        1                        0                        0
0.17996622923794192       2.1311130172098753       1                        0                        0
0.18065332185611982       2.1487579926849167       1                        -1.3409998811627084E-82  -3.5649998285602124E-53
0.1806844635380775        2.1495875109499583       1                        3.944759412922988E-69    1.0487000654010804E-39
0.18077426996017465       2.152686256680003        1                        1.8654168608511444E-68   4.9591434589551347E-39
0.18085121298140383       2.1569280955895977       1                        3.874356038505805E-68    1.02998358218188E-38
0.18091056729260047       2.1627324057925996       1                        9.575337174555961E-48    1.7595558992354547E-38
0.18092692221762358       2.16542202760962         1                        8.718345786580373E-32    4.8787001731836275E-28
0.18096681345860316       2.1755651411895958       1                        4.167190714082041E-31    2.3319187556422226E-27
0.180987013502491         2.1907855406921155       1                        -3.606970884720011E-16   -8.070392428740765E-22
0.1809903642070113        2.195421575740941        1                        0.06536897566987339      1.4626029467794762E-7
0.18100433020347093       2.20318813043104         1                        0.17490093512446345      3.9133338175501153E-7
0.18103161871858725       2.212737153401153        1                        0.3095978217250228       6.927119198843679E-7
0.18107528252508526       2.224477759677201        1                        0.47523551728652025      1.0633191982506091E-6
0.18109377815157085       2.2290765681212177       1                        0.7686465116614429       4.646759817413379E-6
0.18111776962637538       2.235713859673105        1                        285.00196906092947       0.2823802780827673
0.1811404441168426        2.2443827028531986       1                        594.7148588844838        0.5856314359519428
0.18115693599149502       2.2643627755565356       1                        1308.789151615539        1.2848442398686402
0.1811564345344417        2.266743632740532        1                        4240.945042395828        18.781493196169535
0.18115891135511436       2.2761981214955616       1                        15884.99182436167        88.26360612868247
0.18116891337572189       2.2865137061216148       1                        28590.088562472276       164.0775216891767
0.18118064193271058       2.2962285818610115       1                        41774.719932710526       240.00400893780485
0.18118097248694798       2.2965306687641034       1                        44163.81399393615        282.0986233210993
0.18118773341890235       2.305318371952982        1                        113661.68412644361       1506.6081993890107
0.18118856182169757       2.3081352968406144       1                        135641.38427520657       1903.1369583152496
0.1811744487721107        2.32638189784614         1                        278011.8350393049        4471.458017288384
0.18116306729966294       2.3335173550110686       1                        425749.4962333169        13262.074383725101
0.1811506804455172        2.342361800451848        1                        608870.4134013471        24158.02229529579
0.18113950977786863       2.351674006595696        1                        801675.1914272708        35630.1448308725
0.18113802101403828       2.3530513121576124       1                        832216.7663740456        37685.2812936287
0.1811348484490664        2.356238442795542        1                        940475.9254782504        51838.9727232413
0.1811266652139416        2.3660205626678517       1                        1265991.1762584057       93347.27313083294
0.18111837619792304       2.3792062965146332       1                        1704768.1575463244       149298.4965778359
0.18111783044201493       2.3802403395832554       1                        1751649.5179936774       158067.3546492059
0.18111331989037993       2.38741700756117         1                        2077025.531104776        218926.98549167294
0.18111069604572771       2.3910532545606373       1                        2244992.809385598        251864.33712384268
0.18110353438725754       2.400724397512163        1                        2691726.9663229827       339466.1163732379
0.18110182944837772       2.4031854443824803       1                        2824510.8480513855       371675.1542615259
0.18109887586374335       2.409275574849059        1                        3153097.152396569        451379.34641897416
0.1810976550461951        2.4155197004749316       1                        3489989.271562319        533098.0754612797
0.18109743017240698       2.418284427464006        1                        3642699.3446340547       571105.5859817573
0.18109730466594934       2.422024424241194        1                        3865046.695919293        633338.7405131824
0.1810973253853962        2.422630997949731        1                        3900633.270486816        643356.1731182488
0.1810963971137372        2.431685992495411        1                        4431872.592596541        792897.4473899645
0.18109581433617605       2.433622956011893        1                        4549274.382929105        828939.0694617986
0.18109356714391603       2.437913691249215        1                        4809340.093002079        908777.3574746283
0.18108996631543134       2.44227044774007         1                        5073405.845283631        989843.2524446879
0.1810880075141894        2.4443061897235463       1                        5206136.450098359        1032467.7361983799
0.1810843670423716        2.448083221819277        1                        5454097.988068635        1116099.738957791
0.1810793356155806        2.4531096949125506       1                        5784085.407808644        1227397.2026382647
0.18107400341773114       2.458224620444777        1                        6119880.04477401         1340653.2273819274
0.1810737689057732        2.458444732668352        1                        6134598.5100780465       1345685.4780420791
0.18107337886203606       2.4588108326194758       1                        6159728.661394998        1354854.1658022334
0.18106983799005064       2.462378416599574        1                        6407193.089351071        1444512.702175504
0.18106377630759682       2.470223269981453        1                        6951348.402553773        1641665.558071793
0.18106263059606692       2.4721552446255783       1                        7082456.554281887        1692931.4555100976
0.18106081045627265       2.4757405572293845       1                        7325763.82400277         1788069.555723013
0.18105936729494998       2.4793666662721905       1                        7571839.473878409        1884290.2970841343
0.18105905332944253       2.48028914694908         1                        7631941.473403658        1908926.3540931602
0.181058746572485         2.4813008666978194       1                        7685552.6497680675       1832229.4958869524
0.18105827003121025       2.4834454346891124       1                        7805388.020324701        1700953.289639768
0.18105806078552839       2.4902230190826344       1                        8184095.425129482        1286037.8966341356
0.1810581641867634        2.491130375881978        1                        7690202.126369412        1258422.8320126075
0.18105856777473328       2.494622046164799        1                        5789612.840153061        1152154.9929211894
0.18105898390500277       2.4981440094302862       1                        3872534.3480897644       1044964.9410587132
0.18105920039390744       2.5                      1                        2877031.7520222557       948356.0219816215
0.18099855857579056       2.5019686854907306       1                        5880883.665239271        2321.9114159058076
0.18089695277131737       2.505656344714466        1                        3078113.825197148        1215.311853969817
0.1808548090955323        2.5076872784856463       1                        1534510.5002505945       605.8608962832155
0.1808454147364159        2.508805784153669        1                        684382.917895722         270.2104990285247
0.18085405782954517       2.509421777445269        1                        216181.4745966667        85.35353908466199
0.18086656426574765       2.509706188995259        1                        6.390657165066842E-10    1.0106599458229977E-14
0.18104164986834384       2.5126188212048          1                        4.353432471110189E-10    4.0919076551017834E-101
0.1811655735082383        2.5146707183592536       1                        3.098614054100785E-10    3.399653867692912E-101
0.18124297681511653       2.515944777445746        1                        2.3195053447427848E-10   2.970174413664715E-101
0.1813357993838074        2.5174672387568835       1                        1.317911108207046E-10    1.687612344568733E-101
0.181389398930928         2.5183454672463954       1                        7.40143348848525E-11     9.477688172508986E-102
0.18142037275029516       2.518852071243323        1                        4.0685909645098224E-11   5.209914609528348E-102
0.18143829495965957       2.519144304350023        1                        2.1460469564285442E-11   2.7480573713504166E-102
0.18144868837085545       2.519312878011524        1                        1.0370309971953083E-11   1.3279395716970321E-102
0.18145473880751165       2.5194101189544402       1                        3.9729716426698355E-12   5.087472096591352E-103
0.18145828400600209       2.519466211752691        1                        2.8267844086135845E-13   3.619755713191284E-104
0.18160825900232977       2.5218558496558625       1                        0                        0
0.18170149358343696       2.523398330663237        1                        0                        0
0.18170720145271715       2.5234949077994804       1                        0                        0
0.18171276240919876       2.5235893558921316       1                        0                        0
0.18171677892305393       2.52365780294092         1                        0                        0
0.18182330603357666       2.5256350179449862       1                        0                        0
0.1818726429563953        2.5267940181758695       1                        0                        0
0.18188858954827114       2.527474859164518        1                        0                        0
0.18188505396869517       2.527876263609431        1                        0                        0
0.18187016383739607       2.5281143617014514       1                        0                        0
0.18186429828290612       2.5281708429630028       1                        0                        0
0.30932300127032136       2.037639946220217        2                        0                        0
0.3093006775627752        2.0384164506161397       2                        0                        0
0.3092451036317916        2.040609460408529        2                        0                        0
0.3091802693914754        2.043629739830407        2                        0                        0
0.3091027095560733        2.047788493189485        2                        0                        0
0.309007655303888         2.0535139930353994       2                        0                        0
0.3088885439156863        2.0613956186651903       2                        0                        0
0.3087363439498281        2.0722444609488178       2                        0                        0
0.30870367622653144       2.074608229049333        2                        0                        0
0.3086213095884532        2.0802474473265264       2                        0                        0
0.30861460207578695       2.0806092789319277       2                        0                        0
0.30855491641252436       2.0824323988863624       2                        0                        0
0.30842192277215386       2.084986677982166        2                        0                        0
0.30840552330291243       2.085259382204433        2                        0                        0
0.3083168785789687        2.0867573074494277       2                        0                        0
0.3081912925325582        2.088927800447602        2                        0                        0
0.30801219148572967       2.0920722777572784       2                        0                        0
0.3077555740535114        2.0966272417400633       2                        0                        0
0.3073866822703493        2.1032248219175678       2                        0                        0
0.30685518081645435       2.1127804491267197       2                        0                        0
0.30608817571971764       2.126619822570487        2                        0                        0
0.30589676809774285       2.1296794380297985       2                        0                        0
0.30551532899509887       2.1346716972430424       2                        0                        0
0.30490748272238777       2.1416032314651883       2                        1.9811723367803455E-128  1.3023947075625273E-76
0.3048428204108239        2.1423304171087962       2                        1.4749272840730163E-112  9.695963612827514E-61
0.30464766013627514       2.14485310165319         2                        6.567415617205992E-112   4.317326253461055E-60
0.30442992827573123       2.148298076654277        2                        1.3481244034236458E-111  8.86237938799522E-60