% Model:              SPAD_guard ring_polygate_type3_curve.mph
% Version:            COMSOL 6.2.0.415
% Date:               Nov 28 2024, 23:14
% Dimension:          2
% Nodes:              2471
% Expressions:        3
% Description:        Streamline
% X                       Y                        Streamline               User-defined generation rate, electrons Shockley–Read–Hall recombination term
0.05806409636820861       1.9847284679898498       0                        0                        -6.295264678277092E14
0.05807174384228623       1.9850857189971112       0                        0                        -6.298333133585896E14
0.0581961512937637        1.9908991688772733       0                        0                        -6.34826528433135E14
0.05833732796279224       1.9974997757856192       0                        0                        -6.404958384985056E14
0.05835274547620669       1.998203640880646        0                        0                        -6.411464321135915E14
0.05841004855254536       2.000629946195456        0                        0                        -6.433892533738151E14
0.05850551495469072       2.0043218721062703       0                        0                        -6.468022818752834E14
0.05864612155250323       2.00941119005632         0                        0                        -6.515074626251352E14
0.05866478240443988       2.0100900739131355       0                        0                        -6.523831401417608E14
0.05870701873872579       2.0117598755242305       0                        0                        -6.545376964831241E14
0.05876146785757557       2.0141265178553347       0                        0                        -6.575924487878108E14
0.05883323784106066       2.0174818059802373       0                        0                        -6.619243592069538E14
0.05892957581278647       2.0222397407353405       0                        0                        -6.680682458786418E14
0.05906076368189135       2.028987689196488        0                        0                        -6.767828864158818E14
0.059241388984347054      2.0385589832122446       0                        0                        -6.891448027717802E14
0.059492147899466566      2.052135919167835        0                        0                        -7.066813192854666E14
0.05953401211705116       2.054202822789113        0                        0                        -7.168795503959226E14
0.059615584947754714      2.0575955551655616       0                        0                        -7.336411912360928E14
0.059744443814846095      2.0623418846938795       0                        0                        -7.571150884645218E14
0.059939546958966694      2.068984102600089        0                        0                        -7.899903950748121E14
0.05997174837200378       2.070085160138636        0                        0                        -8.38145196881444E14
0.060046627164609914      2.072906869603211        0                        0                        -9.617259638002891E14
0.06014089914145644       2.076894388600726        0                        0                        -1.136626508825601E15
0.06026258532922253       2.0825311851865553       0                        0                        -1.3841299308275665E15
0.0604230331373871        2.0905012278095154       0                        0                        -1.7343457032098928E15
0.060638295851800195      2.1017721353986736       0                        0                        -2.229870084726753E15
0.060665394977667965      2.103292952850726        0                        7.238851004064831E-112   -1.72265374510244E16
0.060738260037195756      2.1080368738941067       0                        2.9792013496136265E-111  -6.3950251679263672E16
0.06081923168460888       2.1145439158712502       0                        6.0683098052087245E-111  -1.27948599151496336E17
0.060911324489290444      2.123467692968128        0                        3.6602493869865977E-81   -2.15625578491699616E17
0.060941162659312625      2.1272131581803997       0                        2.9284062998067514E-65   -1.8804579206854922E19
0.06097955653500834       2.1356316898128984       0                        9.524615476380548E-65    -6.067571754855078E19
0.06099135460794943       2.1470534394119944       0                        8.613677615863373E-50    -1.1760968542955656E20
0.06098843156648969       2.151703153521792        0                        4.3694171705593284E-35   -3.349229979124946E20
0.06097984218777394       2.161084391021184        0                        1.3183932419256688E-34   -7.733283754090902E20
0.06096561552629215       2.1727032088918556       0                        2.4099275725561395E-34   -1.316241017674346E21
0.060961893692806954      2.1756060767714107       0                        3.368197321955468E-24    -1.5183688496505757E21
0.06095032131873812       2.1881917700443907       0                        1.7968566465836234E-23   -2.394724195206144E21
0.0609459121790771        2.194746033739333        0                        4.77788607958701E-13     -2.788925838707413E21
0.06093772055398808       2.2054548290671843       0                        1.2583983689084599E-12   -3.433001382661023E21
0.06092724413124397       2.2175772006161187       0                        2.1420091640557737E-12   -4.16209883340164E21
0.060920547823382507      2.2252765831818846       0                        4.847707237983964E-8     -4.4182245943703576E21
0.06091974408679122       2.2262505141940063       0                        0.0019471222272800536    -4.4182336785158494E21
0.06091193316171732       2.2360889571261646       0                        0.021616327532770416     -4.418325442684014E21
0.060904021200939316      2.2467871527500765       0                        0.04300489984205304      -4.418425222216384E21
0.060895999446793116      2.2584202321507365       0                        0.0662630892980859       -4.418533717549994E21
0.06089579339801829       2.2587303718998184       0                        0.46740494212761363      -4.4185337178173426E21
0.060894912204987946      2.260033073648845        0                        3525.768285102696        -4.418533718329368E21
0.06089189312959713       2.2642072361576613       0                        12497.462922018884       -4.4185337199774684E21
0.06088166883157181       2.276315235328928        0                        38524.10089152339        -4.4185337247581937E21
0.06086841153136417       2.2893985543818474       0                        66650.88955710127        -4.41853372992413E21
0.06086085987235021       2.2963300923792174       0                        1.5750123609967148E7     -4.418533731863729E21
0.060851162900425075      2.3054494038310556       0                        2.5229037632432452E8     -4.418533734033701E21
0.06083914197515151       2.3172579704201213       0                        5.585756701311824E8      -4.4185337368435606E21
0.060834450365968254      2.321920448542907        0                        1.6704736737253727E10    -4.4185337377201885E21
0.06082552405635447       2.330496772038993        0                        4.6404206267741104E10    -4.41853373933271E21
0.06082425677922161       2.331687623746964        0                        7.150322706061972E10     -4.418533739527954E21
0.06081280989145301       2.342305967922308        0                        2.953030121534347E11     -4.418533741268875E21
0.06080948060652898       2.3452833657219845       0                        2.5563540118921436E12    -4.4185337416755105E21
0.06080016058279465       2.3529586995417118       0                        8.384865563783964E12     -4.418533742723809E21
0.06078946420891666       2.3608889809078684       0                        1.4406725318199707E13    -4.4185337438069955E21
0.060783936953933373      2.3647525976524024       0                        2.6859406588547992E13    -4.4185337442774396E21
0.060777919777959606      2.3688934172842884       0                        2.3886885632040866E14    -4.418533744698191E21
0.06076759824395021       2.3759086034763555       0                        5.98043606431116E14      -4.4185337454110153E21
0.06075378782968117       2.3852771140892894       0                        9.927351797136198E14     -4.4185337463967575E21
0.06074864500065234       2.388720736148424        0                        3.039771621426096E15     -4.4185337466812183E21
0.06073870847637362       2.3951808861988106       0                        1.0998216064570296E16    -4.4185337472395803E21
0.06072410030496991       2.404438044501447        0                        2.2402552807752448E16    -4.418533748039713E21
0.06071553052296045       2.4092758782484367       0                        7.33334097346388E16      -4.4185337483989316E21
0.06070217447352168       2.415481132978759        0                        1.38654841249761488E17   -4.418533748859822E21
0.06068582210659995       2.421915103644489        0                        2.57246833218780704E17   -4.418533749326087E21
0.060682308049581885      2.423181434514759        0                        3.8826158860201197E17    -4.4185337494118523E21
0.06066607452150291       2.42849527300936         0                        9.3800663666678118E17    -4.418533749771835E21
0.060647146495319756      2.433901187855519        0                        1.49723632460771968E18   -4.4185337501381936E21
0.060634619302910184      2.437188400018757        0                        1.79233417888111334E18   -4.4185337503683204E21
0.060628527285010024      2.4387622815138346       0                        2.5257022678899543E18    -4.4185337504702047E21
0.06060793567822455       2.444104661149261        0                        5.6652505322258186E18    -4.418533750794921E21
0.060580550596045044      2.4511589483954146       0                        9.810847065382984E18     -4.4185337512236983E21
0.060580070089377505      2.451282133822277        0                        1.0039635606337847E19    -4.418533751230033E21
0.06056421577893329       2.4552421243224845       0                        1.7394405192412627E19    -4.418533751433712E21
0.06054739060894688       2.459246007584569        0                        2.483069518467235E19     -4.4185337516396873E21
0.0605330892588967        2.462521545847779        0                        3.1725094770474893E19    -4.4185337518231965E21
0.060526909394318956      2.4639033250471774       0                        3.956366830332107E19     -4.4185337518839667E21
0.060511669226844686      2.4672086756181346       0                        5.831420948608642E19     -4.418533752029362E21
0.06048808962204745       2.472078307730614        0                        8.487391463454702E19     -4.4185337522828083E21
0.060483806438047974      2.4729377010730347       0                        9.650773973916905E19     -4.4185337449777086E21
0.06046714239103649       2.476257061006306        0                        1.414427653577578E20     -4.4185337167621815E21
0.060440945567106934      2.481360772994335        0                        2.1031323842559368E20    -4.418533663694528E21
0.06042985769413917       2.483521782440991        0                        2.7772780261382046E20    -4.2012312016138813E21
0.060413468405192294      2.486856898250978        0                        3.817697831848526E20     -3.8658643876896084E21
0.060395386873071964      2.4906785711871393       0                        5.033420020038016E20     -3.488921831559397E21
0.060393468458579166      2.4910893643968075       0                        5.266407299213552E20     -3.3926408235493386E21
0.06037813948453846       2.494431825820068        0                        7.16213665244318E20      -2.609240748428732E21
0.060353066797969146      2.5                      0                        1.0030013372010398E21    -1.2963337123265637E21
0.060316400065105316      2.5026876083881806       0                        1.7926327277869095E22    -9.07910933701187E15
0.06029241528862715       2.504611365016846        0                        1.2453832885055988E22    -7.928626998977258E15
0.060284047558617715      2.505346345459077        0                        1.0363092457840232E22    -7.489081582419752E15
0.060268488897903746      2.507197794461743        0                        5.041375690285724E21     -6.379406793091882E15
0.06026616051259669       2.5082156778155498       0                        2.1157182358397518E21    -5.76933445278252E15
0.060271104231401064      2.5087753013977716       0                        5.073146501286658E20     -5.433922787755477E15
0.06027445713804451       2.5089518248990696       0                        1.2999595115243058E-47   -5.32812328621689E15
0.060339072033048         2.5116161941466113       0                        8.277587027000362E-48    -4.706556527948534E15
0.06036531866962283       2.5126793444595306       0                        6.39382593021809E-48     -4.458534903001401E15
0.06042411347306427       2.5150841817691885       0                        3.447845345723772E-48    -3.893581363141713E15
0.06045493930416521       2.516398657921173        0                        1.837576045221528E-48    -3.584778366070994E15
0.060470477803475864      2.5171171436420514       0                        9.574053370945843E-49    -3.415987026471886E15
0.060477660744196395      2.5175098615286493       0                        4.763058659499012E-49    -3.3237259335399485E15
0.06048027702717795       2.5177245150106216       0                        2.133383755015287E-49    -3.273296204926606E15
0.06048039766205772       2.5178418386504653       0                        6.960163015091837E-50    -3.2457314625853955E15
0.06047954133323755       2.517898646838845        0                        0                        -3.2323837208697065E15
0.06042423970967385       2.519872501868303        0                        0                        -3.216104165494252E15
0.060370266434443834      2.521277879316702        0                        0                        -3.204511626912038E15
0.06033402053352794       2.5220077197967954       0                        0                        -3.1984905153550835E15
0.06023141053291311       2.523546025027635        0                        0                        -3.1862036067672875E15
0.06015279084653059       2.5243728644855654       0                        0                        -3.1795881942545725E15
0.06008715339498773       2.524813191688527        0                        0                        -3.176053865302956E15
0.06002851809727873       2.5250435326335343       0                        0                        -3.1741934181321055E15
0.05997363625554651       2.525159782331979        0                        0                        -3.173242412135932E15
0.05992074295390348       2.525214034242759        0                        0                        -3.172785576907461E15
0.05988266966286568       2.525233361903883        0                        0                        -3.172613651392685E15
0.17420674025971636       1.9772462066376675       1                        0                        -6.232851820465178E14
0.17433567358215654       1.9811358253774833       1                        0                        -6.266153139586525E14
0.17460186155967403       1.9889439764653571       1                        0                        -6.333002814637405E14
0.1749376564622777        1.9985085370000382       1                        0                        -6.414889358378069E14
0.1749397701127517        1.9985673293894437       1                        0                        -6.415504330956598E14
0.17494855805288978       1.9988002395575082       1                        0                        -6.417940865892824E14
0.174962286340053         1.9991361782389965       1                        0                        -6.421455915486662E14
0.17503922775861278       2.000744726333685        1                        0                        -6.438294259352326E14
0.17516807619907482       2.002992786000241        1                        0                        -6.461841330074369E14
0.17536970261098578       2.0061374179184464       1                        0                        -6.494793799014365E14
0.17567336738392872       2.010539012743404        1                        0                        -6.540932311114712E14
0.17612009262770922       2.0167028263721147       1                        0                        -6.60555720678377E14
0.17676738999875147       2.0253372110271513       1                        0                        -6.696099389711246E14
0.17699056463511015       2.028396317563706        1                        0                        -6.742025073911582E14
0.17735817347628524       2.033898640699774        1                        0                        -6.824733032322088E14
0.177846604042069         2.041827011168521        1                        0                        -6.944033500465161E14
0.17850936519839303       2.053259452167361        1                        0                        -7.116187040234929E14
0.1785164825375588        2.0533868226491134       1                        0                        -7.14130651593647E14
0.17858076866982014       2.0546232792853063       1                        0                        -7.384877458075098E14
0.17866044432967945       2.05635735293656         1                        0                        -7.725868391438961E14
0.17876166859958803       2.0587881637884418       1                        0                        -8.203261736193682E14
0.1788930651065051        2.0621945095731045       1                        0                        -8.87163865046691E14
0.1790667082044851        2.066966748381213        1                        0                        -9.807420834345634E14
0.1792995037762672        2.0736514393177097       1                        0                        -1.111760997933916E15
0.17961512255987755       2.0830138460272707       1                        0                        -1.2952024291177425E15
0.18004670709202877       2.0961254508812646       1                        1.5283640324664807E-228  -1.5520431432890355E15
0.18025591366687999       2.1029660439548623       1                        1.1806024509165265E-212  -2.4950422591750825E15
0.18030859085174797       2.1049686949974813       1                        2.61708766694463E-66     -4.1376533930779684E18
0.18037873522379588       2.108144413768731        1                        6.761816996859382E-66    -1.0686580717046292E19
0.18045792178811862       2.112417512149339        1                        1.2332713197618995E-65   -1.9488941532138942E19
0.18054926633011806       2.118166483076113        1                        1.982166877804351E-65    -3.132195698732938E19
0.18055328115820346       2.118439497938194        1                        2.0057679704192233E-65   -3.170113210657702E19
0.180722563605741         2.1305688745875164       1                        3.055112242176454E-65    -4.8559070792663605E19
0.18095161916723138       2.1486945385583858       1                        4.595408932238927E-42    -7.378281908871362E19
0.18100221438001768       2.15350662994886         1                        1.5594434460902864E-27   -3.2937069004756366E20
0.18106583075657323       2.162896017416426        1                        4.599826133996602E-27    -8.277370699312701E20
0.1810978022607072        2.1726464555495006       1                        4.21463176285011E-23     -1.4535902769216204E21
0.18110666147285792       2.1907631251373867       1                        1.2865554417534546E-22   -2.61655653222567E21
0.18110176577642462       2.2006710410812866       1                        4.633595736291771E-9     -3.09509776238734E21
0.18110856507499748       2.2118795567359317       1                        9.876518845502688E-9     -3.636393348885793E21
0.18112859309212961       2.2245340272319813       1                        1.579688766830001E-8     -4.247455563415253E21
0.1811380206737515        2.229069412856446        1                        8.719882987097697E-8     -4.418391693730224E21
0.1811510040121376        2.2356494410841066       1                        2.2325351969580876       -4.418409212211196E21
0.18116265492071681       2.24351800393796         1                        4.1340410234763505       -4.418443334373532E21
0.18117060889282394       2.2643618619707273       1                        9.174203472111326        -4.418533717498468E21
0.1811701106880203        2.265870573054299        1                        71200.79261519112        -4.418533718046366E21
0.18116999813400136       2.2758678480670302       1                        542952.7161548383        -4.418533721676687E21
0.1811755474644015        2.2865228299680718       1                        1045758.4202056881       -4.4185337255453844E21
0.18118250878988248       2.296228469776092        1                        1648771.9804071113       -4.4185337286630677E21
0.18118634429928784       2.3053203260722164       1                        1.8331275670128179E9     -4.4185337307596314E21
0.18118654658810424       2.307860812933811        1                        2.478164140710891E9      -4.4185337312969663E21
0.1811729206870225        2.3263818206360938       1                        7.179402052756933E9      -4.4185337352151556E21
0.18116335382986246       2.333299218284974        1                        7.436911046230626E11     -4.4185337363803427E21
0.18115216214090582       2.3422970869654898       1                        1.701708868819784E12     -4.418533737895903E21
0.1811419014259563        2.3516714106676653       1                        2.6998010247723213E12    -4.418533739474798E21
0.18114051338469164       2.353051941161471        1                        3.166120938944083E12     -4.4185337397224653E21
0.18113751388978278       2.356247404168728        1                        5.085768019481618E13     -4.4185337401461587E21
0.1811296132456879        2.365932046076472        1                        1.7482174891526344E14    -4.4185337413710313E21
0.18112094326332273       2.379206631191642        1                        3.447452960721986E14     -4.418533743049926E21
0.18112040105792193       2.380153753804892        1                        7.307965612001032E14     -4.4185337431487016E21
0.1811156327420309        2.387414645193307        1                        3.690396454054783E15     -4.4185337439059454E21
0.18111299164805134       2.3910049932061797       1                        5.694640559201326E15     -4.418533744348915E21
0.18110568154523396       2.400724755860737        1                        1.1120497852183904E16    -4.418533745548117E21
0.18110397284283125       2.4031154963278607       1                        2.6958190209193704E16    -4.4185337457642486E21
0.18110064282612365       2.409252079997837        1                        6.7609627774099368E16    -4.4185337463190407E21
0.18109876604629482       2.415518499585726        1                        1.09119775058848384E17   -4.4185337468855984E21
0.1810982059393869        2.4182845553246572       1                        1.3358999315100312E17    -4.4185337471678593E21
0.1810976067340157        2.42202498313764         1                        2.87758658508936448E17   -4.4185337474545395E21
0.1810975492982415        2.4225913505053134       1                        3.160995649489529E17     -4.4185337475009264E21
0.18109559388050786       2.431686246510601        1                        7.7122711551825178E17    -4.418533748245797E21
0.18109486786946544       2.433597834272005        1                        1.13469597092760294E18   -4.4185337483547325E21
0.18109243028581093       2.4379056214076176       1                        1.95375826651526246E18   -4.418533748600206E21
0.18108884938588252       2.4422697168374294       1                        2.7834999150422272E18    -4.418533748848867E21
0.18108694517336793       2.4443068583050187       1                        3.6260280790060524E18    -4.4185337489843437E21
0.1810834412025375        2.4480571113403          1                        7.317596754869888E18     -4.4185337492323E21
0.1810785878848677        2.4531026902526905       1                        1.2284188886640398E19    -4.418533749565897E21
0.18107350250117626       2.458224247554595        1                        1.7325532244801808E19    -4.4185337499045163E21
0.18107327957978916       2.458444885302035        1                        1.7668461509350478E19    -4.4185337499211357E21
0.18107290897409084       2.458811802292997        1                        1.9148448730338767E19    -4.418533749939552E21
0.18106955310446318       2.4623637861198056       1                        3.2552927507205595E19    -4.4185337501419087E21
0.18106368272332313       2.4702232704680758       1                        6.221313202084925E19     -4.41853375058968E21
0.18106256449180155       2.472141450451661        1                        8.272986805532372E19     -4.418533749357707E21
0.18106076499136253       2.475736418475933        1                        1.2118145207793651E20    -4.418533747048802E21
0.18105933411160974       2.479366726055474        1                        1.600110592549575E20     -4.418533744717201E21
0.1810590232711003        2.480289146934794        1                        1.7002655365217852E20    -4.4185337441190753E21
0.18105871995490722       2.4813008140140393       1                        1.9733596694371834E20    -4.338141153255288E21
0.1810582470848902        2.4834358171205215       1                        2.5453909979342805E20    -4.1684636504615457E21
0.18105800797969782       2.4902230190962005       1                        4.363895569433698E20     -3.629056784733635E21
0.18105810406099487       2.491118379220416        1                        4.787278908049114E20     -3.4327121383304714E21
0.18105850624287295       2.4946180265147797       1                        6.442135428853123E20     -2.6652700873490925E21
0.1810589539633981        2.4981440620606103       1                        8.109470327512557E20     -1.8920413243652167E21
0.18105920039390744       2.5                      1                        9.021506342698397E20     -1.4847294563314505E21
0.1809994929976236        2.5019705334720874       1                        1.3287249790618162E22    -8.313311036538655E15
0.1809001896388402        2.5056635089547914       1                        6.944030758622335E21     -6.690058576259053E15
0.18085991030371756       2.5077002835777105       1                        3.445548312007373E21     -5.79479390147691E15
0.1808521856492387        2.5088236123798024       1                        1.5160257692535494E21    -5.301036928283931E15
0.180862417017008         2.5094431476573837       1                        4.518329700032053E20     -5.028723828016736E15
0.18087415651692113       2.509706180540644        1                        14462.331525159434       -4.913110499092894E15
0.18104856527306676       2.512618721898328        1                        1.547761226969359E-51    -4.409409265030308E15
0.18117200084949225       2.5146706592899726       1                        1.1320249610052696E-51   -4.0545430120680105E15
0.1812485159277662        2.5159353438127834       1                        8.758209714401189E-52    -3.8358260844902675E15
0.1813412148935388        2.5174622903041755       1                        4.9752277562871884E-52   -3.5698989424467345E15
0.18139473446483628       2.518342981228129        1                        2.793330994733595E-52    -3.4165211142283185E15
0.1814256566778322        2.518850933680123        1                        1.5348863158115286E-52   -3.3280579441890425E15
0.18144354549319014       2.5191439031200153       1                        8.090577342395169E-53    -3.277035365329732E15
0.18145391708169972       2.519312877590333        1                        3.9042420099992034E-53   -3.247607260002664E15
0.1814599529851146        2.5194103359332662       1                        1.4897043793554117E-53   -3.230634120594601E15
0.18146348820969474       2.519466546179661        1                        9.708006176277673E-55    -3.2208445865572145E15
0.18161322614034514       2.521866913484211        1                        0                        -3.20181954837154E15
0.1817089381326999        2.5234644189103097       1                        0                        -3.189592118545818E15
0.18171325422217047       2.5235382069554126       1                        0                        -3.189027339216417E15
0.18171748341412192       2.5236107321567687       1                        0                        -3.1884722257972415E15
0.1817205814410434        2.5236640047494934       1                        0                        -3.188064473317074E15
0.18182594492459297       2.5256462022658352       1                        0                        -3.1731006897502935E15
0.1818738376619747        2.526804676502355        1                        0                        -3.164357839776111E15
0.18188828327848688       2.527483265612486        1                        0                        -3.1592391780160775E15
0.18188327711732474       2.527882279174097        1                        0                        -3.1562319201561635E15
0.18186697235253202       2.5281184114221387       1                        0                        -3.154454764329284E15
0.1818493446070044        2.5282401848535963       1                        0                        -3.153540018815632E15
0.3090561958355068        1.9837740973800881       2                        0                        -6.29982784082463E14