% Model:              SPAD_guard ring_polygate_type2_1.mph
% Version:            COMSOL 6.2.0.415
% Date:               Nov 26 2024, 22:44
% Dimension:          2
% Nodes:              16227
% Expressions:        1
% Description:        Ionization coefficient, holes
% Length unit:        µm
% X                       Y                        semi.iig1.alpha_p (1/m) @ Vp=-8.98
0                         0.7                      0
0.049999999999999996      0.7                      0
0.09999999999999999       0.7                      0
0.15000000000000002       0.7                      0
0.19999999999999998       0.7                      0
0.25                      0.7                      0
0.30000000000000004       0.7                      0
0.35000000000000003       0.7                      0
0.39999999999999997       0.7                      0
0.44999999999999996       0.7                      0
0.5                       0.7                      0
0.55                      0.7                      0
0.6000000000000001        0.7                      0
0.65                      0.7                      0
0.7000000000000001        0.7                      0
0.75                      0.7                      0
0.7999999999999999        0.7                      0
0.85                      0.7                      0
0.8999999999999999        0.7                      0
0.95                      0.7                      0
1                         0.7                      0
1.0499999999999998        0.7                      0
1.1                       0.7                      0
1.15                      0.7                      2.066764511585876E-48
1.2000000000000002        0.7                      2521.175471005236
1.25                      0.7                      805988.6527459874
1.3                       0.7                      3894038.5624513356
0                         0.701                    0
0.049999999999999996      0.701                    0
0.09999999999999999       0.701                    0
0.15000000000000002       0.701                    0
0.19999999999999998       0.701                    0
0.25                      0.701                    0
0.30000000000000004       0.701                    0
0.35000000000000003       0.701                    0
0.39999999999999997       0.701                    0
0.44999999999999996       0.701                    0
0.5                       0.701                    0
0.55                      0.701                    0
0.6000000000000001        0.701                    0
0.65                      0.701                    0
0.7000000000000001        0.701                    0
0.75                      0.701                    0
0.7999999999999999        0.701                    0
0.85                      0.701                    0
0.8999999999999999        0.701                    0
0.95                      0.701                    0
1                         0.701                    0
1.0499999999999998        0.701                    0
1.1                       0.701                    0
1.15                      0.701                    2.867078928391246E-48
1.2000000000000002        0.701                    2359.0453791212994
1.25                      0.701                    811063.3455724695
1.3                       0.701                    3895310.044543105
0                         0.702                    0
0.049999999999999996      0.702                    0
0.09999999999999999       0.702                    0
0.15000000000000002       0.702                    0
0.19999999999999998       0.702                    0
0.25                      0.702                    0
0.30000000000000004       0.702                    0
0.35000000000000003       0.702                    0
0.39999999999999997       0.702                    0
0.44999999999999996       0.702                    0
0.5                       0.702                    0
0.55                      0.702                    0
0.6000000000000001        0.702                    0
0.65                      0.702                    0
0.7000000000000001        0.702                    0
0.75                      0.702                    0
0.7999999999999999        0.702                    0
0.85                      0.702                    0
0.8999999999999999        0.702                    0
0.95                      0.702                    0
1                         0.702                    0
1.0499999999999998        0.702                    0
1.1                       0.702                    0
1.15                      0.702                    3.973880591184473E-48
1.2000000000000002        0.702                    2186.282150157498
1.25                      0.702                    815017.5607834946
1.3                       0.702                    3895747.085587348
0                         0.7029999999999998       0
0.049999999999999996      0.7029999999999998       0
0.09999999999999999       0.7029999999999998       0
0.15000000000000002       0.7029999999999998       0
0.19999999999999998       0.7029999999999998       0
0.25                      0.7029999999999998       0
0.30000000000000004       0.7029999999999998       0
0.35000000000000003       0.7029999999999998       0
0.39999999999999997       0.7029999999999998       0
0.44999999999999996       0.7029999999999998       0
0.5                       0.7029999999999998       0
0.55                      0.7029999999999998       0
0.6000000000000001        0.7029999999999998       0
0.65                      0.7029999999999998       0
0.7000000000000001        0.7029999999999998       0
0.75                      0.7029999999999998       0
0.7999999999999999        0.7029999999999998       0
0.85                      0.7029999999999998       0
0.8999999999999999        0.7029999999999998       0
0.95                      0.7029999999999998       0
1                         0.7029999999999998       0
1.0499999999999998        0.7029999999999998       0
1.1                       0.7029999999999998       0
1.15                      0.7029999999999998       5.50322457425421E-48
1.2000000000000002        0.7029999999999998       2008.0922589369943
1.25                      0.7029999999999998       817829.6772771771
1.3                       0.7029999999999998       3895350.74047376
0                         0.704                    0
0.049999999999999996      0.704                    0
0.09999999999999999       0.704                    0
0.15000000000000002       0.704                    0
0.19999999999999998       0.704                    0
0.25                      0.704                    0
0.30000000000000004       0.704                    0
0.35000000000000003       0.704                    0
0.39999999999999997       0.704                    0
0.44999999999999996       0.704                    0
0.5                       0.704                    0
0.55                      0.704                    0
0.6000000000000001        0.704                    0
0.65                      0.704                    0
0.7000000000000001        0.704                    0
0.75                      0.704                    0
0.7999999999999999        0.704                    0
0.85                      0.704                    0
0.8999999999999999        0.704                    0
0.95                      0.704                    0
1                         0.704                    0
1.0499999999999998        0.704                    0
1.1                       0.704                    0
1.15                      0.704                    5.826866901679869E-20
1.2000000000000002        0.704                    1829.1967271343356
1.25                      0.704                    793122.2305388759
1.3                       0.704                    3894123.525923712
0                         0.705                    0
0.049999999999999996      0.705                    0
0.09999999999999999       0.705                    0
0.15000000000000002       0.705                    0
0.19999999999999998       0.705                    0
0.25                      0.705                    0
0.30000000000000004       0.705                    0
0.35000000000000003       0.705                    0
0.39999999999999997       0.705                    0
0.44999999999999996       0.705                    0
0.5                       0.705                    0
0.55                      0.705                    0
0.6000000000000001        0.705                    0
0.65                      0.705                    0
0.7000000000000001        0.705                    0
0.75                      0.705                    0
0.7999999999999999        0.705                    0
0.85                      0.705                    0
0.8999999999999999        0.705                    0
0.95                      0.705                    0
1                         0.705                    0
1.0499999999999998        0.705                    0
1.1                       0.705                    0
1.15                      0.705                    6.995016623976978E-20
1.2000000000000002        0.705                    1653.6582949910287
1.25                      0.705                    793839.2504731569
1.3                       0.705                    3892069.409802496
0                         0.7059999999999998       0
0.049999999999999996      0.7059999999999998       0
0.09999999999999999       0.7059999999999998       0
0.15000000000000002       0.7059999999999998       0
0.19999999999999998       0.7059999999999998       0
0.25                      0.7059999999999998       0
0.30000000000000004       0.7059999999999998       0
0.35000000000000003       0.7059999999999998       0
0.39999999999999997       0.7059999999999998       0
0.44999999999999996       0.7059999999999998       0
0.5                       0.7059999999999998       0
0.55                      0.7059999999999998       0
0.6000000000000001        0.7059999999999998       0
0.65                      0.7059999999999998       0
0.7000000000000001        0.7059999999999998       0
0.75                      0.7059999999999998       0
0.7999999999999999        0.7059999999999998       0
0.85                      0.7059999999999998       0
0.8999999999999999        0.7059999999999998       0
0.95                      0.7059999999999998       0
1                         0.7059999999999998       0
1.0499999999999998        0.7059999999999998       0
1.1                       0.7059999999999998       0
1.15                      0.7059999999999998       8.432255228116493E-20
1.2000000000000002        0.7059999999999998       1484.7835593782506
1.25                      0.7059999999999998       793382.0705499228
1.3                       0.7059999999999998       3889193.795105811
0                         0.707                    0
0.049999999999999996      0.707                    0
0.09999999999999999       0.707                    0
0.15000000000000002       0.707                    0
0.19999999999999998       0.707                    0
0.25                      0.707                    0
0.30000000000000004       0.707                    0
0.35000000000000003       0.707                    0
0.39999999999999997       0.707                    0
0.44999999999999996       0.707                    0
0.5                       0.707                    0
0.55                      0.707                    0
0.6000000000000001        0.707                    0
0.65                      0.707                    0
0.7000000000000001        0.707                    0
0.75                      0.707                    0
0.7999999999999999        0.707                    0
0.85                      0.707                    0
0.8999999999999999        0.707                    0
0.95                      0.707                    0
1                         0.707                    0
1.0499999999999998        0.707                    0
1.1                       0.707                    0
1.15                      0.707                    1.020635890408861E-19
1.2000000000000002        0.707                    14366.711049457801
1.25                      0.707                    791759.2321527667
1.3                       0.707                    3880056.583823165
0                         0.708                    0
0.049999999999999996      0.708                    0
0.09999999999999999       0.708                    0
0.15000000000000002       0.708                    0
0.19999999999999998       0.708                    0
0.25                      0.708                    0
0.30000000000000004       0.708                    0
0.35000000000000003       0.708                    0
0.39999999999999997       0.708                    0
0.44999999999999996       0.708                    0
0.5                       0.708                    0
0.55                      0.708                    0
0.6000000000000001        0.708                    0
0.65                      0.708                    0
0.7000000000000001        0.708                    0
0.75                      0.708                    0
0.7999999999999999        0.708                    0
0.85                      0.708                    0
0.8999999999999999        0.708                    0
0.95                      0.708                    0
1                         0.708                    0
1.0499999999999998        0.708                    0
1.1                       0.708                    0
1.15                      0.708                    1.2403388647562664E-19
1.2000000000000002        0.708                    4305.334370380174
1.25                      0.708                    788987.3697654712
1.3                       0.708                    3884353.702144987
0                         0.7089999999999999       0
0.049999999999999996      0.7089999999999999       0
0.09999999999999999       0.7089999999999999       0
0.15000000000000002       0.7089999999999999       0
0.19999999999999998       0.7089999999999999       0
0.25                      0.7089999999999999       0
0.30000000000000004       0.7089999999999999       0
0.35000000000000003       0.7089999999999999       0
0.39999999999999997       0.7089999999999999       0
0.44999999999999996       0.7089999999999999       0
0.5                       0.7089999999999999       0
0.55                      0.7089999999999999       0
0.6000000000000001        0.7089999999999999       0
0.65                      0.7089999999999999       0
0.7000000000000001        0.7089999999999999       0
0.75                      0.7089999999999999       0
0.7999999999999999        0.7089999999999999       0
0.85                      0.7089999999999999       0
0.8999999999999999        0.7089999999999999       0
0.95                      0.7089999999999999       0
1                         0.7089999999999999       0
1.0499999999999998        0.7089999999999999       0
1.1                       0.7089999999999999       0
1.15                      0.7089999999999999       1.5132901250405138E-19
1.2000000000000002        0.7089999999999999       4647.629104530715
1.25                      0.7089999999999999       785090.9378147238
1.3                       0.7089999999999999       3887826.8531403113
0                         0.71                     0
0.049999999999999996      0.71                     0
0.09999999999999999       0.71                     0
0.15000000000000002       0.71                     0
0.19999999999999998       0.71                     0
0.25                      0.71                     0
0.30000000000000004       0.71                     0
0.35000000000000003       0.71                     0
0.39999999999999997       0.71                     0
0.44999999999999996       0.71                     0
0.5                       0.71                     0
0.55                      0.71                     0
0.6000000000000001        0.71                     0
0.65                      0.71                     0
0.7000000000000001        0.71                     0
0.75                      0.71                     0
0.7999999999999999        0.71                     0
0.85                      0.71                     0
0.8999999999999999        0.71                     0
0.95                      0.71                     0
1                         0.71                     0
1.0499999999999998        0.71                     0
1.1                       0.71                     0
1.15                      0.71                     1.8534713941852397E-19
1.2000000000000002        0.71                     4924.3251631067105
1.25                      0.71                     780101.8280440776
1.3                       0.71                     3890471.9074526518
0                         0.711                    0
0.049999999999999996      0.711                    0
0.09999999999999999       0.711                    0
0.15000000000000002       0.711                    0
0.19999999999999998       0.711                    0
0.25                      0.711                    0
0.30000000000000004       0.711                    0
0.35000000000000003       0.711                    0
0.39999999999999997       0.711                    0
0.44999999999999996       0.711                    0
0.5                       0.711                    0
0.55                      0.711                    0
0.6000000000000001        0.711                    0
0.65                      0.711                    0
0.7000000000000001        0.711                    0
0.75                      0.711                    0
0.7999999999999999        0.711                    0
0.85                      0.711                    0
0.8999999999999999        0.711                    0
0.95                      0.711                    0
1                         0.711                    0
1.0499999999999998        0.711                    0
1.1                       0.711                    0
1.15                      0.711                    2.278770368283269E-19
1.2000000000000002        0.711                    3075.0727386485555
1.25                      0.711                    774058.8870929213
1.3                       0.711                    3892286.18620369
0                         0.712                    0
0.049999999999999996      0.712                    0
0.09999999999999999       0.712                    0
0.15000000000000002       0.712                    0
0.19999999999999998       0.712                    0
0.25                      0.712                    0
0.30000000000000004       0.712                    0
0.35000000000000003       0.712                    0
0.39999999999999997       0.712                    0
0.44999999999999996       0.712                    0
0.5                       0.712                    0
0.55                      0.712                    0
0.6000000000000001        0.712                    0
0.65                      0.712                    0
0.7000000000000001        0.712                    0
0.75                      0.712                    0
0.7999999999999999        0.712                    0
0.85                      0.712                    0
0.8999999999999999        0.712                    0
0.95                      0.712                    0
1                         0.712                    0
1.0499999999999998        0.712                    0
1.1                       0.712                    0
1.15                      0.712                    2.812127582641929E-19
1.2000000000000002        0.712                    3301.7460498974706
1.25                      0.712                    767007.3461270465
1.3                       0.712                    3893268.469443564
0                         0.7129999999999999       0
0.049999999999999996      0.7129999999999999       0
0.09999999999999999       0.7129999999999999       0
0.15000000000000002       0.7129999999999999       0
0.19999999999999998       0.7129999999999999       0
0.25                      0.7129999999999999       0
0.30000000000000004       0.7129999999999999       0
0.35000000000000003       0.7129999999999999       0
0.39999999999999997       0.7129999999999999       0
0.44999999999999996       0.7129999999999999       0
0.5                       0.7129999999999999       0
0.55                      0.7129999999999999       0
0.6000000000000001        0.7129999999999999       0
0.65                      0.7129999999999999       0
0.7000000000000001        0.7129999999999999       0
0.75                      0.7129999999999999       0
0.7999999999999999        0.7129999999999999       0
0.85                      0.7129999999999999       0
0.8999999999999999        0.7129999999999999       0
0.95                      0.7129999999999999       0
1                         0.7129999999999999       0
1.0499999999999998        0.7129999999999999       0
1.1                       0.7129999999999999       0
1.15                      0.7129999999999999       3.4830341016715015E-19
1.2000000000000002        0.7129999999999999       3519.252983294699
1.25                      0.7129999999999999       686687.2045291167
1.3                       0.7129999999999999       3893418.9991956176
0                         0.714                    0
0.049999999999999996      0.714                    0
0.09999999999999999       0.714                    0
0.15000000000000002       0.714                    0
0.19999999999999998       0.714                    0
0.25                      0.714                    0
0.30000000000000004       0.714                    0
0.35000000000000003       0.714                    0
0.39999999999999997       0.714                    0
0.44999999999999996       0.714                    0
0.5                       0.714                    0
0.55                      0.714                    0
0.6000000000000001        0.714                    0
0.65                      0.714                    0
0.7000000000000001        0.714                    0
0.75                      0.714                    0
0.7999999999999999        0.714                    0
0.85                      0.714                    0
0.8999999999999999        0.714                    0
0.95                      0.714                    0
1                         0.714                    0
1.0499999999999998        0.714                    0
1.1                       0.714                    0
1.15                      0.714                    4.3294910739202026E-19
1.2000000000000002        0.714                    3722.517087852754
1.25                      0.714                    688534.8324339547
1.3                       0.714                    3892739.477080785
0                         0.715                    0
0.049999999999999996      0.715                    0
0.09999999999999999       0.715                    0
0.15000000000000002       0.715                    0
0.19999999999999998       0.715                    0
0.25                      0.715                    0
0.30000000000000004       0.715                    0
0.35000000000000003       0.715                    0
0.39999999999999997       0.715                    0
0.44999999999999996       0.715                    0
0.5                       0.715                    0
0.55                      0.715                    0
0.6000000000000001        0.715                    0
0.65                      0.715                    0
0.7000000000000001        0.715                    0
0.75                      0.715                    0
0.7999999999999999        0.715                    0
0.85                      0.715                    0
0.8999999999999999        0.715                    0
0.95                      0.715                    0
1                         0.715                    0
1.0499999999999998        0.715                    0
1.1                       0.715                    0
1.15                      0.715                    6.5363651603034865E-22
1.2000000000000002        0.715                    3906.462353674095
1.25                      0.715                    674614.7178037971
1.3                       0.715                    3891233.0565430475
0                         0.7159999999999999       0
0.049999999999999996      0.7159999999999999       0
0.09999999999999999       0.7159999999999999       0
0.15000000000000002       0.7159999999999999       0
0.19999999999999998       0.7159999999999999       0
0.25                      0.7159999999999999       0
0.30000000000000004       0.7159999999999999       0
0.35000000000000003       0.7159999999999999       0
0.39999999999999997       0.7159999999999999       0
0.44999999999999996       0.7159999999999999       0
0.5                       0.7159999999999999       0
0.55                      0.7159999999999999       0
0.6000000000000001        0.7159999999999999       0
0.65                      0.7159999999999999       0
0.7000000000000001        0.7159999999999999       0
0.75                      0.7159999999999999       0
0.7999999999999999        0.7159999999999999       0
0.85                      0.7159999999999999       0
0.8999999999999999        0.7159999999999999       0
0.95                      0.7159999999999999       0
1                         0.7159999999999999       0
1.0499999999999998        0.7159999999999999       0
1.1                       0.7159999999999999       0
1.15                      0.7159999999999999       8.482560964099019E-22
1.2000000000000002        0.7159999999999999       4066.25273816357
1.25                      0.7159999999999999       674563.9837184317
1.3                       0.7159999999999999       3888904.3297329447
0                         0.717                    0
0.049999999999999996      0.717                    0
0.09999999999999999       0.717                    0
0.15000000000000002       0.717                    0
0.19999999999999998       0.717                    0
0.25                      0.717                    0
0.30000000000000004       0.717                    0
0.35000000000000003       0.717                    0
0.39999999999999997       0.717                    0
0.44999999999999996       0.717                    0
0.5                       0.717                    0
0.55                      0.717                    0
0.6000000000000001        0.717                    0
0.65                      0.717                    0
0.7000000000000001        0.717                    0
0.75                      0.717                    0
0.7999999999999999        0.717                    0
0.85                      0.717                    0
0.8999999999999999        0.717                    0
0.95                      0.717                    0
1                         0.717                    0
1.0499999999999998        0.717                    0
1.1                       0.717                    0
1.15                      0.717                    1.1037404124365364E-21
1.2000000000000002        0.717                    4197.5379560432975
1.25                      0.717                    774318.4266133799
1.3                       0.717                    3885759.309141679
0                         0.718                    0
0.049999999999999996      0.718                    0
0.09999999999999999       0.718                    0
0.15000000000000002       0.718                    0
0.19999999999999998       0.718                    0
0.25                      0.718                    0
0.30000000000000004       0.718                    0
0.35000000000000003       0.718                    0
0.39999999999999997       0.718                    0
0.44999999999999996       0.718                    0
0.5                       0.718                    0
0.55                      0.718                    0
0.6000000000000001        0.718                    0
0.65                      0.718                    0
0.7000000000000001        0.718                    0
0.75                      0.718                    0
0.7999999999999999        0.718                    0
0.85                      0.718                    0
0.8999999999999999        0.718                    0
0.95                      0.718                    0
1                         0.718                    0
1.0499999999999998        0.718                    0
1.1                       0.718                    0
1.15                      0.718                    1.4398825875979849E-21
1.2000000000000002        0.718                    4296.686222899934
1.25                      0.718                    783820.4416161601
1.3                       0.718                    3879150.201297229
0                         0.7189999999999999       0
0.049999999999999996      0.7189999999999999       0
0.09999999999999999       0.7189999999999999       0
0.15000000000000002       0.7189999999999999       0
0.19999999999999998       0.7189999999999999       0
0.25                      0.7189999999999999       0
0.30000000000000004       0.7189999999999999       0
0.35000000000000003       0.7189999999999999       0
0.39999999999999997       0.7189999999999999       0
0.44999999999999996       0.7189999999999999       0
0.5                       0.7189999999999999       0
0.55                      0.7189999999999999       0
0.6000000000000001        0.7189999999999999       0
0.65                      0.7189999999999999       0
0.7000000000000001        0.7189999999999999       0
0.75                      0.7189999999999999       0
0.7999999999999999        0.7189999999999999       0
0.85                      0.7189999999999999       0
0.8999999999999999        0.7189999999999999       0
0.95                      0.7189999999999999       0
1                         0.7189999999999999       0