% Model:              SPAD_guard ring_polygate_type2_1_DCR.mph
% Version:            COMSOL 6.2.0.415
% Date:               Nov 26 2024, 22:42
% Dimension:          2
% Nodes:              16227
% Expressions:        1
% Description:        User-defined generation rate, electrons
% Length unit:        µm
% X                       Y                        semi.udg1.Gn (1/(m^3*s)) @ Vp=-8.98
0                         0.7                      0
0.049999999999999996      0.7                      0
0.09999999999999999       0.7                      0
0.15000000000000002       0.7                      0
0.19999999999999998       0.7                      0
0.25                      0.7                      0
0.30000000000000004       0.7                      0
0.35000000000000003       0.7                      0
0.39999999999999997       0.7                      0
0.44999999999999996       0.7                      0
0.5                       0.7                      0
0.55                      0.7                      0
0.6000000000000001        0.7                      0
0.65                      0.7                      0
0.7000000000000001        0.7                      0
0.75                      0.7                      0
0.7999999999999999        0.7                      0
0.85                      0.7                      0
0.8999999999999999        0.7                      0
0.95                      0.7                      0
1                         0.7                      0
1.0499999999999998        0.7                      0
1.1                       0.7                      0
1.15                      0.7                      5.272695737944386E-107
1.2000000000000002        0.7                      0.2283638837626045
1.25                      0.7                      4.389999668167469E14
1.3                       0.7                      5.063297176285798E20
0                         0.701                    0
0.049999999999999996      0.701                    0
0.09999999999999999       0.701                    0
0.15000000000000002       0.701                    0
0.19999999999999998       0.701                    0
0.25                      0.701                    0
0.30000000000000004       0.701                    0
0.35000000000000003       0.701                    0
0.39999999999999997       0.701                    0
0.44999999999999996       0.701                    0
0.5                       0.701                    0
0.55                      0.701                    0
0.6000000000000001        0.701                    0
0.65                      0.701                    0
0.7000000000000001        0.701                    0
0.75                      0.701                    0
0.7999999999999999        0.701                    0
0.85                      0.701                    0
0.8999999999999999        0.701                    0
0.95                      0.701                    0
1                         0.701                    0
1.0499999999999998        0.701                    0
1.1                       0.701                    0
1.15                      0.701                    3.397017455291938E-106
1.2000000000000002        0.701                    0.2378744236094414
1.25                      0.701                    4.393341278040156E14
1.3                       0.701                    5.069077289004444E20
0                         0.702                    0
0.049999999999999996      0.702                    0
0.09999999999999999       0.702                    0
0.15000000000000002       0.702                    0
0.19999999999999998       0.702                    0
0.25                      0.702                    0
0.30000000000000004       0.702                    0
0.35000000000000003       0.702                    0
0.39999999999999997       0.702                    0
0.44999999999999996       0.702                    0
0.5                       0.702                    0
0.55                      0.702                    0
0.6000000000000001        0.702                    0
0.65                      0.702                    0
0.7000000000000001        0.702                    0
0.75                      0.702                    0
0.7999999999999999        0.702                    0
0.85                      0.702                    0
0.8999999999999999        0.702                    0
0.95                      0.702                    0
1                         0.702                    0
1.0499999999999998        0.702                    0
1.1                       0.702                    0
1.15                      0.702                    2.6295193481581263E-105
1.2000000000000002        0.702                    0.24880876937046723
1.25                      0.702                    4.4003150534198406E14
1.3                       0.702                    5.0764263250100466E20
0                         0.7029999999999998       0
0.049999999999999996      0.7029999999999998       0
0.09999999999999999       0.7029999999999998       0
0.15000000000000002       0.7029999999999998       0
0.19999999999999998       0.7029999999999998       0
0.25                      0.7029999999999998       0
0.30000000000000004       0.7029999999999998       0
0.35000000000000003       0.7029999999999998       0
0.39999999999999997       0.7029999999999998       0
0.44999999999999996       0.7029999999999998       0
0.5                       0.7029999999999998       0
0.55                      0.7029999999999998       0
0.6000000000000001        0.7029999999999998       0
0.65                      0.7029999999999998       0
0.7000000000000001        0.7029999999999998       0
0.75                      0.7029999999999998       0
0.7999999999999999        0.7029999999999998       0
0.85                      0.7029999999999998       0
0.8999999999999999        0.7029999999999998       0
0.95                      0.7029999999999998       0
1                         0.7029999999999998       0
1.0499999999999998        0.7029999999999998       0
1.1                       0.7029999999999998       0
1.15                      0.7029999999999998       2.418196575486228E-104
1.2000000000000002        0.7029999999999998       0.2613198691912539
1.25                      0.7029999999999998       4.410937231343616E14
1.3                       0.7029999999999998       5.085350524470339E20
0                         0.704                    0
0.049999999999999996      0.704                    0
0.09999999999999999       0.704                    0
0.15000000000000002       0.704                    0
0.19999999999999998       0.704                    0
0.25                      0.704                    0
0.30000000000000004       0.704                    0
0.35000000000000003       0.704                    0
0.39999999999999997       0.704                    0
0.44999999999999996       0.704                    0
0.5                       0.704                    0
0.55                      0.704                    0
0.6000000000000001        0.704                    0
0.65                      0.704                    0
0.7000000000000001        0.704                    0
0.75                      0.704                    0
0.7999999999999999        0.704                    0
0.85                      0.704                    0
0.8999999999999999        0.704                    0
0.95                      0.704                    0
1                         0.704                    0
1.0499999999999998        0.704                    0
1.1                       0.704                    0
1.15                      0.704                    1.8618070205510496E-61
1.2000000000000002        0.704                    0.27558681042246724
1.25                      0.704                    3.4055845326761294E14
1.3                       0.704                    5.095857470736561E20
0                         0.705                    0
0.049999999999999996      0.705                    0
0.09999999999999999       0.705                    0
0.15000000000000002       0.705                    0
0.19999999999999998       0.705                    0
0.25                      0.705                    0
0.30000000000000004       0.705                    0
0.35000000000000003       0.705                    0
0.39999999999999997       0.705                    0
0.44999999999999996       0.705                    0
0.5                       0.705                    0
0.55                      0.705                    0
0.6000000000000001        0.705                    0
0.65                      0.705                    0
0.7000000000000001        0.705                    0
0.75                      0.705                    0
0.7999999999999999        0.705                    0
0.85                      0.705                    0
0.8999999999999999        0.705                    0
0.95                      0.705                    0
1                         0.705                    0
1.0499999999999998        0.705                    0
1.1                       0.705                    0
1.15                      0.705                    9.644033669101878E-62
1.2000000000000002        0.705                    0.2918188489615145
1.25                      0.705                    3.419101292016983E14
1.3                       0.705                    5.10795610008292E20
0                         0.7059999999999998       0
0.049999999999999996      0.7059999999999998       0
0.09999999999999999       0.7059999999999998       0
0.15000000000000002       0.7059999999999998       0
0.19999999999999998       0.7059999999999998       0
0.25                      0.7059999999999998       0
0.30000000000000004       0.7059999999999998       0
0.35000000000000003       0.7059999999999998       0
0.39999999999999997       0.7059999999999998       0
0.44999999999999996       0.7059999999999998       0
0.5                       0.7059999999999998       0
0.55                      0.7059999999999998       0
0.6000000000000001        0.7059999999999998       0
0.65                      0.7059999999999998       0
0.7000000000000001        0.7059999999999998       0
0.75                      0.7059999999999998       0
0.7999999999999999        0.7059999999999998       0
0.85                      0.7059999999999998       0
0.8999999999999999        0.7059999999999998       0
0.95                      0.7059999999999998       0
1                         0.7059999999999998       0
1.0499999999999998        0.7059999999999998       0
1.1                       0.7059999999999998       0
1.15                      0.7059999999999998       5.391189779126597E-62
1.2000000000000002        0.7059999999999998       0.31026021100994766
1.25                      0.7059999999999998       3.435545194852271E14
1.3                       0.7059999999999998       5.1216567131913073E20
0                         0.707                    0
0.049999999999999996      0.707                    0
0.09999999999999999       0.707                    0
0.15000000000000002       0.707                    0
0.19999999999999998       0.707                    0
0.25                      0.707                    0
0.30000000000000004       0.707                    0
0.35000000000000003       0.707                    0
0.39999999999999997       0.707                    0
0.44999999999999996       0.707                    0
0.5                       0.707                    0
0.55                      0.707                    0
0.6000000000000001        0.707                    0
0.65                      0.707                    0
0.7000000000000001        0.707                    0
0.75                      0.707                    0
0.7999999999999999        0.707                    0
0.85                      0.707                    0
0.8999999999999999        0.707                    0
0.95                      0.707                    0
1                         0.707                    0
1.0499999999999998        0.707                    0
1.1                       0.707                    0
1.15                      0.707                    3.2585949461138623E-62
1.2000000000000002        0.707                    984.9085421269402
1.25                      0.707                    3.454955399747423E14
1.3                       0.707                    5.022731863608155E20
0                         0.708                    0
0.049999999999999996      0.708                    0
0.09999999999999999       0.708                    0
0.15000000000000002       0.708                    0
0.19999999999999998       0.708                    0
0.25                      0.708                    0
0.30000000000000004       0.708                    0
0.35000000000000003       0.708                    0
0.39999999999999997       0.708                    0
0.44999999999999996       0.708                    0
0.5                       0.708                    0
0.55                      0.708                    0
0.6000000000000001        0.708                    0
0.65                      0.708                    0
0.7000000000000001        0.708                    0
0.75                      0.708                    0
0.7999999999999999        0.708                    0
0.85                      0.708                    0
0.8999999999999999        0.708                    0
0.95                      0.708                    0
1                         0.708                    0
1.0499999999999998        0.708                    0
1.1                       0.708                    0
1.15                      0.708                    2.133111720073368E-62
1.2000000000000002        0.708                    3.508837125911178
1.25                      0.708                    3.477378254002702E14
1.3                       0.708                    5.023465061027515E20
0                         0.7089999999999999       0
0.049999999999999996      0.7089999999999999       0
0.09999999999999999       0.7089999999999999       0
0.15000000000000002       0.7089999999999999       0
0.19999999999999998       0.7089999999999999       0
0.25                      0.7089999999999999       0
0.30000000000000004       0.7089999999999999       0
0.35000000000000003       0.7089999999999999       0
0.39999999999999997       0.7089999999999999       0
0.44999999999999996       0.7089999999999999       0
0.5                       0.7089999999999999       0
0.55                      0.7089999999999999       0
0.6000000000000001        0.7089999999999999       0
0.65                      0.7089999999999999       0
0.7000000000000001        0.7089999999999999       0
0.75                      0.7089999999999999       0
0.7999999999999999        0.7089999999999999       0
0.85                      0.7089999999999999       0
0.8999999999999999        0.7089999999999999       0
0.95                      0.7089999999999999       0
1                         0.7089999999999999       0
1.0499999999999998        0.7089999999999999       0
1.1                       0.7089999999999999       0
1.15                      0.7089999999999999       1.514415571730813E-62
1.2000000000000002        0.7089999999999999       3.5015661485351406
1.25                      0.7089999999999999       3.5028674657398456E14
1.3                       0.7089999999999999       5.0257469090258295E20
0                         0.71                     0
0.049999999999999996      0.71                     0
0.09999999999999999       0.71                     0
0.15000000000000002       0.71                     0
0.19999999999999998       0.71                     0
0.25                      0.71                     0
0.30000000000000004       0.71                     0
0.35000000000000003       0.71                     0
0.39999999999999997       0.71                     0
0.44999999999999996       0.71                     0
0.5                       0.71                     0
0.55                      0.71                     0
0.6000000000000001        0.71                     0
0.65                      0.71                     0
0.7000000000000001        0.71                     0
0.75                      0.71                     0
0.7999999999999999        0.71                     0
0.85                      0.71                     0
0.8999999999999999        0.71                     0
0.95                      0.71                     0
1                         0.71                     0
1.0499999999999998        0.71                     0
1.1                       0.71                     0
1.15                      0.71                     1.1674093518260164E-62
1.2000000000000002        0.71                     3.5076515400168455
1.25                      0.71                     3.5314843038343675E14
1.3                       0.71                     5.029579343421943E20
0                         0.711                    0
0.049999999999999996      0.711                    0
0.09999999999999999       0.711                    0
0.15000000000000002       0.711                    0
0.19999999999999998       0.711                    0
0.25                      0.711                    0
0.30000000000000004       0.711                    0
0.35000000000000003       0.711                    0
0.39999999999999997       0.711                    0
0.44999999999999996       0.711                    0
0.5                       0.711                    0
0.55                      0.711                    0
0.6000000000000001        0.711                    0
0.65                      0.711                    0
0.7000000000000001        0.711                    0
0.75                      0.711                    0
0.7999999999999999        0.711                    0
0.85                      0.711                    0
0.8999999999999999        0.711                    0
0.95                      0.711                    0
1                         0.711                    0
1.0499999999999998        0.711                    0
1.1                       0.711                    0
1.15                      0.711                    9.779785157023761E-63
1.2000000000000002        0.711                    1.429420930845504
1.25                      0.711                    3.5632978266583944E14
1.3                       0.711                    5.0349656164126104E20
0                         0.712                    0
0.049999999999999996      0.712                    0
0.09999999999999999       0.712                    0
0.15000000000000002       0.712                    0
0.19999999999999998       0.712                    0
0.25                      0.712                    0
0.30000000000000004       0.712                    0
0.35000000000000003       0.712                    0
0.39999999999999997       0.712                    0
0.44999999999999996       0.712                    0
0.5                       0.712                    0
0.55                      0.712                    0
0.6000000000000001        0.712                    0
0.65                      0.712                    0
0.7000000000000001        0.712                    0
0.75                      0.712                    0
0.7999999999999999        0.712                    0
0.85                      0.712                    0
0.8999999999999999        0.712                    0
0.95                      0.712                    0
1                         0.712                    0
1.0499999999999998        0.712                    0
1.1                       0.712                    0
1.15                      0.712                    8.908905799564408E-63
1.2000000000000002        0.712                    1.4057522729291627
1.25                      0.712                    3.598385140741422E14
1.3                       0.712                    5.0419103007458565E20
0                         0.7129999999999999       0
0.049999999999999996      0.7129999999999999       0
0.09999999999999999       0.7129999999999999       0
0.15000000000000002       0.7129999999999999       0
0.19999999999999998       0.7129999999999999       0
0.25                      0.7129999999999999       0
0.30000000000000004       0.7129999999999999       0
0.35000000000000003       0.7129999999999999       0
0.39999999999999997       0.7129999999999999       0
0.44999999999999996       0.7129999999999999       0
0.5                       0.7129999999999999       0
0.55                      0.7129999999999999       0
0.6000000000000001        0.7129999999999999       0
0.65                      0.7129999999999999       0
0.7000000000000001        0.7129999999999999       0
0.75                      0.7129999999999999       0
0.7999999999999999        0.7129999999999999       0
0.85                      0.7129999999999999       0
0.8999999999999999        0.7129999999999999       0
0.95                      0.7129999999999999       0
1                         0.7129999999999999       0
1.0499999999999998        0.7129999999999999       0
1.1                       0.7129999999999999       0
1.15                      0.7129999999999999       8.827671964788804E-63
1.2000000000000002        0.7129999999999999       1.3879245498041202
1.25                      0.7129999999999999       1.0997507550529534E14
1.3                       0.7129999999999999       5.050419295590756E20
0                         0.714                    0
0.049999999999999996      0.714                    0
0.09999999999999999       0.714                    0
0.15000000000000002       0.714                    0
0.19999999999999998       0.714                    0
0.25                      0.714                    0
0.30000000000000004       0.714                    0
0.35000000000000003       0.714                    0
0.39999999999999997       0.714                    0
0.44999999999999996       0.714                    0
0.5                       0.714                    0
0.55                      0.714                    0
0.6000000000000001        0.714                    0
0.65                      0.714                    0
0.7000000000000001        0.714                    0
0.75                      0.714                    0
0.7999999999999999        0.714                    0
0.85                      0.714                    0
0.8999999999999999        0.714                    0
0.95                      0.714                    0
1                         0.714                    0
1.0499999999999998        0.714                    0
1.1                       0.714                    0
1.15                      0.714                    9.514989859639822E-63
1.2000000000000002        0.714                    1.3757316843676972
1.25                      0.714                    1.1043105752428278E14
1.3                       0.714                    5.060499834112821E20
0                         0.715                    0
0.049999999999999996      0.715                    0
0.09999999999999999       0.715                    0
0.15000000000000002       0.715                    0
0.19999999999999998       0.715                    0
0.25                      0.715                    0
0.30000000000000004       0.715                    0
0.35000000000000003       0.715                    0
0.39999999999999997       0.715                    0
0.44999999999999996       0.715                    0
0.5                       0.715                    0
0.55                      0.715                    0
0.6000000000000001        0.715                    0
0.65                      0.715                    0
0.7000000000000001        0.715                    0
0.75                      0.715                    0
0.7999999999999999        0.715                    0
0.85                      0.715                    0
0.8999999999999999        0.715                    0
0.95                      0.715                    0
1                         0.715                    0
1.0499999999999998        0.715                    0
1.1                       0.715                    0
1.15                      0.715                    3.6229707318823114E-68
1.2000000000000002        0.715                    1.3690336066010622
1.25                      0.715                    9.342034948771562E13
1.3                       0.715                    5.072160492768322E20
0                         0.7159999999999999       0
0.049999999999999996      0.7159999999999999       0
0.09999999999999999       0.7159999999999999       0
0.15000000000000002       0.7159999999999999       0
0.19999999999999998       0.7159999999999999       0
0.25                      0.7159999999999999       0
0.30000000000000004       0.7159999999999999       0
0.35000000000000003       0.7159999999999999       0
0.39999999999999997       0.7159999999999999       0
0.44999999999999996       0.7159999999999999       0
0.5                       0.7159999999999999       0
0.55                      0.7159999999999999       0
0.6000000000000001        0.7159999999999999       0
0.65                      0.7159999999999999       0
0.7000000000000001        0.7159999999999999       0
0.75                      0.7159999999999999       0
0.7999999999999999        0.7159999999999999       0
0.85                      0.7159999999999999       0
0.8999999999999999        0.7159999999999999       0
0.95                      0.7159999999999999       0
1                         0.7159999999999999       0
1.0499999999999998        0.7159999999999999       0
1.1                       0.7159999999999999       0
1.15                      0.7159999999999999       4.723414031326443E-68
1.2000000000000002        0.7159999999999999       1.3677536742087155
1.25                      0.7159999999999999       9.396850710275897E13
1.3                       0.7159999999999999       5.085411202330403E20
0                         0.717                    0
0.049999999999999996      0.717                    0
0.09999999999999999       0.717                    0
0.15000000000000002       0.717                    0
0.19999999999999998       0.717                    0
0.25                      0.717                    0
0.30000000000000004       0.717                    0
0.35000000000000003       0.717                    0
0.39999999999999997       0.717                    0
0.44999999999999996       0.717                    0
0.5                       0.717                    0
0.55                      0.717                    0
0.6000000000000001        0.717                    0
0.65                      0.717                    0
0.7000000000000001        0.717                    0
0.75                      0.717                    0
0.7999999999999999        0.717                    0
0.85                      0.717                    0
0.8999999999999999        0.717                    0
0.95                      0.717                    0
1                         0.717                    0
1.0499999999999998        0.717                    0
1.1                       0.717                    0
1.15                      0.717                    6.7875965811788986E-68
1.2000000000000002        0.717                    1.371877266346504
1.25                      0.717                    4.506084607045296E14
1.3                       0.717                    5.100263260666834E20
0                         0.718                    0
0.049999999999999996      0.718                    0
0.09999999999999999       0.718                    0
0.15000000000000002       0.718                    0
0.19999999999999998       0.718                    0
0.25                      0.718                    0
0.30000000000000004       0.718                    0
0.35000000000000003       0.718                    0
0.39999999999999997       0.718                    0
0.44999999999999996       0.718                    0
0.5                       0.718                    0
0.55                      0.718                    0
0.6000000000000001        0.718                    0
0.65                      0.718                    0
0.7000000000000001        0.718                    0
0.75                      0.718                    0
0.7999999999999999        0.718                    0
0.85                      0.718                    0
0.8999999999999999        0.718                    0
0.95                      0.718                    0
1                         0.718                    0
1.0499999999999998        0.718                    0
1.1                       0.718                    0
1.15                      0.718                    1.0736310041916287E-67
1.2000000000000002        0.718                    1.3814515157633873
1.25                      0.718                    4.4958088174441525E14
1.3                       0.718                    4.987971206833729E20
0                         0.7189999999999999       0
0.049999999999999996      0.7189999999999999       0
0.09999999999999999       0.7189999999999999       0
0.15000000000000002       0.7189999999999999       0
0.19999999999999998       0.7189999999999999       0
0.25                      0.7189999999999999       0
0.30000000000000004       0.7189999999999999       0
0.35000000000000003       0.7189999999999999       0
0.39999999999999997       0.7189999999999999       0
0.44999999999999996       0.7189999999999999       0
0.5                       0.7189999999999999       0
0.55                      0.7189999999999999       0
0.6000000000000001        0.7189999999999999       0
0.65                      0.7189999999999999       0
0.7000000000000001        0.7189999999999999       0
0.75                      0.7189999999999999       0
0.7999999999999999        0.7189999999999999       0
0.85                      0.7189999999999999       0