% Model:              SPAD_guard ring_polygate_type3_curve.mph
% Version:            COMSOL 6.2.0.415
% Date:               Dec 4 2024, 20:29
% Dimension:          2
% Nodes:              2398
% Expressions:        2
% Description:        Streamline
% X                       Y                        Streamline               Shockley–Read–Hall recombination term
0.0581239634936357        2.033190804780461        0                        -1.9059016304726534E14
0.058203905271273865      2.0374766171725116       0                        -1.9163826632110294E14
0.05833109588860204       2.044330940389948        0                        -1.933145049027482E14
0.05848490520452859       2.0526619672924706       0                        -1.953518758684287E14
0.05849621254364341       2.053250347463974        0                        -1.9551521147591272E14
0.05852651369832769       2.0546619904866383       0                        -1.9590713470886456E14
0.05860569613757956       2.0578487017018543       0                        -1.967920445171182E14
0.05873041279486448       2.0622562793829973       0                        -1.9801620398287728E14
0.05891820690878383       2.068354705574243        0                        -1.997102101206423E14
0.058923092410714605      2.0685090249308358       0                        -1.9977540953260744E14
0.05898198923909285       2.0704998479745473       0                        -2.0061683859622256E14
0.05905584274213417       2.073316223030554        0                        -2.0180790792731162E14
0.05915086861748478       2.0773021126307682       0                        -2.034942947780248E14
0.05927587232794474       2.0829447924814324       0                        -2.058823733316957E14
0.059443328136082545      2.090934563395688        0                        -2.0926450429034253E14
0.05967090772237504       2.1022493424105453       0                        -2.1405486145676975E14
0.059693469027023535      2.103351247245857        0                        -2.1597760368654184E14
0.059755691991547864      2.1061426227624698       0                        -2.2085123495697088E14
0.059849989741922724      2.110032808563823        0                        -2.2764766381275272E14
0.059989024559877355      2.115455384243091        0                        -2.3712561038364606E14
0.06019045516552033       2.123015016389167        0                        -2.503431796200079E14
0.06020438787769901       2.123537237929409        0                        -2.5626521060560112E14
0.06028545117068754       2.126821862864486        0                        -2.93549602095466E14
0.06038633868088453       2.131453038424711        0                        -3.461934391151705E14
0.06051518481576707       2.1379847805527863       0                        -4.205162329178537E14
0.06068347076202128       2.1471990491269364       0                        -5.254375902857885E14
0.060696352871420375      2.1479535636612646       0                        -1.3582566653237018E15
0.06075011735916243       2.151598630962755        0                        -5.377320688159515E15
0.06080775809581567       2.156580292073032        0                        -1.0862088672801098E16
0.060870700215831824      2.163387330059731        0                        -1.8348562234050268E16
0.06094089001361518       2.1726872731997178       0                        -2.8568755750281656E16
0.06097238096414559       2.1786161962685577       0                        -1.14764748129698714E18
0.0609951410845679        2.1881710528424825       0                        -2.9545003534001516E18
0.060996807789253274      2.1903629943664495       0                        -1.2148988975665642E20
0.06099842228541575       2.19756175828276         0                        -5.106876201177751E20
0.0609942028895715        2.2065045452251595       0                        -9.94020868783299E20
0.06098272969828074       2.2176138482626073       0                        -1.5942939891638151E21
0.06097370699389272       2.2252522302870745       0                        -2.4979406934385303E21
0.06097056635616044       2.2282283375234906       0                        -3.0103973134209133E21
0.06096184812943376       2.2370606262374273       0                        -4.531235481168576E21
0.06095287772253541       2.247081891446517        0                        -6.256810874722197E21
0.06094362140957434       2.2584521891904026       0                        -8.214684536310146E21
0.06094342281129748       2.258708682747634        0                        -8.252949016260192E21
0.06094257269329139       2.2597867569290657       0                        -8.362661978815685E21
0.06093803311882056       2.2650398501875753       0                        -8.89430662261752E21
0.06092610266935179       2.2765630262515204       0                        -1.0060525359445964E22
0.06091010653965866       2.289384635305975        0                        -1.1358159278989495E22
0.0609008022573406        2.296362591268895        0                        -1.218749642040422E22
0.06088894809364629       2.3056221508201573       0                        -1.339445057018981E22
0.060874993109683126      2.317245904537011        0                        -1.4909564846339816E22
0.06086932540406499       2.322085845868326        0                        -1.5693746155313317E22
0.06085917953489432       2.330524225891373        0                        -1.706095554842017E22
0.06085760003506489       2.3318162223673284       0                        -1.729064312265974E22
0.06084471237820981       2.342295096005583        0                        -1.9153548998792706E22
0.06084068297785128       2.345468149638689        0                        -1.985072192153331E22
0.06083025267625804       2.3530331991215707       0                        -2.151288426883263E22
0.060818225619737674      2.3609119471528617       0                        -2.3243963459102254E22
0.06081204297750776       2.3647428172815372       0                        -2.4167420670925597E22
0.0608052951114441        2.368880803667547        0                        -2.5383770005695663E22
0.060793958052713         2.3758127321769784       0                        -2.7421390418902644E22
0.06077867989256846       2.3852702183331425       0                        -3.0162680637197543E22
0.0607730504710913        2.3887443233540164       0                        -3.140021596012633E22
0.06076231098774977       2.395221421046291        0                        -3.388589167952748E22
0.06074683069383025       2.4044315888504517       0                        -3.7420423973483795E22
0.060737576080475336      2.409328861898637        0                        -3.9717545120591155E22
0.060723238984362264      2.4155031503054136       0                        -4.261364037655233E22
0.06070558718370715       2.42190973011447         0                        -4.581999711800174E22
0.06070172367268952       2.4231916385862458       0                        -4.660483901380661E22
0.06068418046233637       2.428470220716413        0                        -4.983661280999149E22
0.06066363553704247       2.433856704588722        0                        -5.313443075554042E22
0.06064981274507168       2.437185482050357        0                        -5.513801371994673E22
0.06064311347171137       2.4387772311128364       0                        -5.630719240025066E22
0.06062086100990602       2.4441217075915618       0                        -6.044970809902722E22
0.06059165547080425       2.4511583143005224       0                        -6.5903794283239185E22
0.06059099863269281       2.4513166917279423       0                        -6.603769341358223E22
0.060574226512998756      2.4552610598483846       0                        -6.937244668980564E22
0.0605564373212728        2.4592563731979737       0                        -7.275029812791474E22
0.06054137990630325       2.4625204292899303       0                        -7.5559945516423E22
0.06053487816672852       2.463899062674357        0                        -7.697386972840063E22
0.06051887196436049       2.467194690358027        0                        -8.035387351261656E22
0.06049399672382373       2.472078203080473        0                        -8.537222424299717E22
0.06048940352698674       2.472954931888478        0                        -8.640242762120528E22
0.06047195049006897       2.4762650560556008       0                        -9.029200353000629E22
0.06044454926294665       2.4813607276554195       0                        -9.62212702907726E22
0.06043294464228116       2.4835247928552406       0                        -8.961803991488249E22
0.060415879143614716      2.4868525937036563       0                        -7.946384934977523E22
0.060397024595294724      2.4906785576208987       0                        -6.816890942336125E22
0.06039498251437281       2.4910988435349637       0                        -6.582556764965438E22
0.060379082102781735      2.4944334908107244       0                        -4.723297336535009E22
0.060353066797969146      2.5                      0                        -1.6016420284934595E22
0.06031559650443133       2.5026855138501194       0                        -4.9595486043658432E17
0.06029090368341236       2.5046056293402543       0                        -3.466108160985559E17
0.0602820911846603        2.5053495672614767       0                        -2.8874866720867667E17
0.06026554085114298       2.507187913325798        0                        -1.45709268367515232E17
0.06026234482462428       2.508196944295499        0                        -6.7200323733925904E16
0.06026647724485497       2.5087507954634267       0                        -2.410971299341486E16
0.060270166694395215      2.5089518014143652       0                        -8.472016033886342E15
0.06033501826631686       2.511616404970961        0                        -6.916726371978623E15
0.060361209747617744      2.5126725560338623       0                        -6.300266563662952E15
0.060420386316126444      2.5150800046044703       0                        -4.891537530819798E15
0.06045145616716269       2.516395957209879        0                        -4.121499058062166E15
0.06046716281348754       2.5171152768948573       0                        -3.700581266924562E15
0.06047447210684235       2.517508465424006        0                        -3.4704996301455325E15
0.06047719171708854       2.5177233843227023       0                        -3.3447327467314895E15
0.06047740299045018       2.5178408575763975       0                        -3.275986336190151E15
0.060476578720531866      2.5178986357420525       0                        -3.242171803230932E15
0.06042363122046564       2.519864281346367        0                        -3.2219423114245865E15
0.0603718197686937        2.5212657125511733       0                        -3.207515976478525E15
0.060336398524939314      2.5220046722474674       0                        -3.1999071250350975E15
0.06023853251175169       2.523539019230584        0                        -3.185077574191348E15
0.060164498588146396      2.5243661932962076       0                        -3.1770587697753305E15
0.060103398308183204      2.524808420775047        0                        -3.172747321867355E15
0.06004929930693732       2.5250410973689985       0                        -3.1704539790682975E15
0.059998972379584264      2.525159695251498        0                        -3.1692592404131665E15
0.05995349023117712       2.5252150545450682       0                        -3.1686766260448185E15
0.17495920633440842       2.032957733828893        1                        -1.9053175276951162E14
0.1752627692903267        2.0375134674067885       1                        -1.916551887603174E14
0.17568574396830922       2.0440952002411734       1                        -1.9327829051345197E14
0.1762137773480671        2.0525766313062137       1                        -1.953699344556137E14
0.17623423164789814       2.0529101257364557       1                        -1.9545218016449997E14
0.17626771883817188       2.053456729329407        1                        -1.9558698255605012E14
0.1763016387367885        2.05401116102632         1                        -1.9572371567447788E14
0.17631425940564904       2.0542187030651324       1                        -1.9579709104421506E14
0.17638355879872133       2.0553870326396564       1                        -1.9621009184595047E14
0.17647735386749552       2.057026532924694        1                        -1.9678953969524497E14
0.17660550224469362       2.0593268303258987       1                        -1.9760242250518694E14
0.17678182884066543       2.062553867810666        1                        -1.9874268797427234E14
0.17702572250386783       2.067080619077776        1                        -2.0034209375317862E14
0.1773643752692669        2.0734301638737587       1                        -2.0258542434210553E14
0.17783592280896438       2.0823360992916866       1                        -2.0573183214197866E14
0.1784938487806098        2.094827264047888        1                        -2.1014476737092662E14
0.17852131881790273       2.095351829426965        1                        -2.10422977907806E14
0.17892573850767982       2.103375058086051        1                        -2.1468014197919975E14
0.1789459428433983        2.1038025560061864       1                        -2.1782815416978853E14
0.17899363969237003       2.1048759760341738       1                        -2.2572669988157144E14
0.17905565701385492       2.1063730772715124       1                        -2.367340415929881E14
0.17913763261192492       2.1084606627980476       1                        -2.520741104221964E14
0.17924742389077894       2.111371205967619        1                        -2.734526984454932E14
0.17939598171000132       2.1154287047561318       1                        -3.032471670718576E14
0.1795985682761197        2.121084714951193        1                        -3.447708434924759E14
0.17996622920576444       2.131113017204097        1                        -4.018007114220677E14
0.18065332183905367       2.1487579926885467       1                        -5.0204041679405294E14
0.18068446352125703       2.1495875109452154       1                        -1.1970161902633736E16
0.1807742699451166        2.1526862566735483       1                        -5.4733148299254784E16
0.18085121296815473       2.156928095580812        1                        -1.13136920041033856E17
0.18091056728122443       2.1627324057806114       1                        -1.92919752226178656E17
0.18092692220699885       2.165422027604945        1                        -4.6161934783203149E17
0.18096681345011825       2.175565141187086        1                        -1.47686797712680448E18
0.18098701349627558       2.1907855406932795       1                        -3.0038231827688699E18
0.1809903642013138        2.1954215757344877       1                        -3.484217152749343E20
0.18100433019849313       2.203188130426095        1                        -9.272014752361529E20
0.18103161871431128       2.212737153397199        1                        -1.6389545856462655E21
0.18107528252148763       2.2244777596734036       1                        -2.514201236986098E21
0.18109377814821515       2.2290765681217595       1                        -2.9351990444708473E21
0.18111776962333148       2.2357138596790045       1                        -4.0526154141330907E21
0.18114044411412014       2.244382702851662        1                        -5.457341821847862E21
0.18115693598943367       2.2643627755566724       1                        -8.695114750475185E21
0.18115643453244734       2.2667436327378656       1                        -8.953801682454152E21
0.18115891135336182       2.276198121493292        1                        -9.981025506845664E21
0.18116891337419933       2.2865137061195204       1                        -1.1101752285134733E22
0.18118064193137956       2.296228581861091        1                        -1.2110568607502301E22
0.18118097248562368       2.2965306687652993       1                        -1.2152387895201328E22
0.18118773341772873       2.305318371954632        1                        -1.3368906823809513E22
0.18118856182056864       2.3081352968405398       1                        -1.3755319702323905E22
0.18117444877124828       2.3263818978460957       1                        -1.6258315744195838E22
0.18116306729889062       2.333517355011405        1                        -1.7634454206230747E22
0.18115068044484633       2.3423618004523736       1                        -1.9340180968285743E22
0.1811395097772932        2.3516740065963204       1                        -2.113611307759167E22
0.18113802101347679       2.3530513121574708       1                        -2.1410311780643933E22
0.18113484844853608       2.356238442793759        1                        -2.2233170637044824E22
0.1811266652134934        2.366020562667819        1                        -2.471433133046376E22
0.18111837619757268       2.379206296514587        1                        -2.8058803108080054E22
0.1811178304416714        2.3802403395834615       1                        -2.8414122590080464E22
0.18111331989008234       2.387417007561474        1                        -3.088018616556757E22
0.18111069604545207       2.3910532545605934       1                        -3.216353217070869E22
0.18110353438703508       2.4007243975121253       1                        -3.5576782613848797E22
0.18110182944816763       2.403185444382561        1                        -3.6681719999019644E22
0.18109887586356213       2.409275574849195        1                        -3.941599037597041E22
0.18109765504604067       2.415519700475098        1                        -4.221937328977097E22
0.18109743017226365       2.4182844274639823       1                        -4.351431136102277E22
0.18109730466582025       2.422024424240955        1                        -4.557528590530524E22
0.18109732538526932       2.42263099794978         1                        -4.59119527919516E22
0.181096397113641         2.431685992495442        1                        -5.0937768578017265E22
0.18109581433608593       2.4336229560118334       1                        -5.218174762223563E22
0.18109356714383867       2.43791369124917         1                        -5.49373805946286E22
0.1810899663153661        2.442270447740028        1                        -5.773539708017626E22
0.18108800751412948       2.444306189723585        1                        -5.921417242887421E22
0.18108436704232117       2.4480832218192425       1                        -6.226114736682356E22
0.18107933561554157       2.4531096949125297       1                        -6.631605902935917E22
0.18107400341770252       2.458224620444757        1                        -7.044232443656854E22
0.18107376890574492       2.458444732668362        1                        -7.062789234415775E22
0.18107337886200842       2.458810832619534        1                        -7.098932887637227E22
0.18106983799002935       2.462378416599575        1                        -7.448064443786484E22
0.1810637763075869        2.4702232699814535       1                        -8.215780414479311E22
0.1810626305960593        2.4721552446255672       1                        -8.434641311985737E22
0.18106081045626862       2.475740557229383        1                        -8.840798450905352E22
0.18105936729494881       2.4793666662721927       1                        -9.251577533921522E22
0.1810590533294419        2.48028914694908         1                        -9.356945279484507E22
0.181058746572485         2.4813008666978194       1                        -9.169337735805735E22
0.18105827003121128       2.483445434689096        1                        -8.772162667909786E22
0.18105806078553055       2.490223019082635        1                        -7.5169536444862E22
0.18105816418676549       2.4911303758819665       1                        -7.051173470040144E22
0.18105856777473486       2.4946220461647943       1                        -5.258768560390221E22
0.18105898390500344       2.4981440094302854       1                        -3.4508131502840514E22
0.18105920039390744       2.5                      1                        -2.4959471831960254E22
0.1809985585757872        2.5019686854907235       1                        -4.5402219148615219E17
0.1808969527713029        2.5056563447144686       1                        -2.41294515414919904E17
0.18085480909550716       2.507687278485654        1                        -1.24136453383209072E17
0.1808454147363803        2.5088057841536786       1                        -5.9612580930770024E16
0.1808540578294992        2.509421777445279        1                        -2.4076561369062872E16
0.18086656426569314       2.5097061889952585       1                        -7.668618816500782E15
0.1810416498681709        2.5126188212047524       1                        -6.347277347613852E15
0.1811655735079553        2.514670718359136        1                        -5.416416664705617E15
0.18124297681478974       2.5159447774463026       1                        -4.838429409513893E15
0.18133579938331537       2.517467238757094        1                        -4.142856206856887E15
0.18138939893029438       2.5183454672463554       1                        -3.7416161126140715E15
0.18142037274953488       2.518852071243109        1                        -3.5101615188779845E15
0.1814382949587821        2.5191443043496915       1                        -3.376647372064886E15
0.18144868836986666       2.5193128780111165       1                        -3.299629988019191E15
0.18145473880641516       2.519410118953983        1                        -3.255202655412666E15
0.18145828400480016       2.519466211752202        1                        -3.229574832738773E15
0.18160825899474337       2.52185584964555         1                        -3.206337300196683E15
0.18170149357120385       2.5233983306420997       1                        -3.1925801439102315E15
0.1817072014402571        2.5234949077788964       1                        -3.191718785242867E15
0.18171276239651263       2.523589355872053        1                        -3.1908764149580355E15
0.18171677891012195       2.5236578029198284       1                        -3.190265944445642E15
0.1818233060134443        2.5256350179138733       1                        -3.173184264322425E15
0.18187264293021443       2.526794018134913        1                        -3.163177740203286E15
0.18188858951687994       2.527474859115641        1                        -3.157305874716132E15
0.18188505393269502       2.527876263554818        1                        -3.153850290993013E15
0.18187016379721876       2.528114361642994        1                        -3.151806798635938E15
0.18186429823230266       2.5281708429787786       1                        -3.151323180301125E15
0.3093229964137835        2.037639946745234        2                        -1.9158058316762666E14
0.30930067295396235       2.038416452249921        2                        -1.9178487273336053E14
0.30924509966395974       2.0406094620360005       2                        -1.9236175861682962E14
0.3091802660668345        2.043629741428128        2                        -1.9315615447946966E14
0.30910270687718266       2.047788494734996        2                        -1.942498835885683E14
0.3090076532737459        2.0535139945113037       2                        -1.957555493324906E14
0.3088885425378375        2.0613956200661643       2                        -1.9782811402763003E14
0.3087363432284903        2.0722444622931904       2                        -2.006808334187661E14
0.3087036756127376        2.0746082310585106       2                        -2.013110635179914E14
0.3086213092592464        2.0802474474011303       2                        -2.0281460640126584E14
0.30861460176193584       2.0806092789827466       2                        -2.0299893860616372E14
0.30855491616333774       2.0824323988516653       2                        -2.0392634083249597E14
0.30842192259007295       2.0849866778359196       2                        -2.052230604699188E14
0.30840552311709124       2.085259382206819        2                        -2.0561544700756044E14
0.308316878416357         2.086757307455045        2                        -2.0776982046415662E14
0.3081912923931114        2.08892780045484         2                        -2.1088961654965747E14
0.30801219136941016       2.0920722777645335       2                        -2.1540750903468588E14
0.3077555739602745        2.096627241746056        2                        -2.2195008293809266E14
0.30738668220011445       2.103224821921941        2                        -2.314247396632338E14
0.3068551807690524        2.112780449131115        2                        -2.4514555037875753E14
0.30608817569479835       2.1266198225803863       2                        -2.6501551306501134E14
0.3058967680767364        2.1296794380347928       2                        -3.0607676956963894E14
0.30551532897884404       2.134671697243529        2                        -3.72783293510531E14
0.30490748271102874       2.1416032314603686       2                        -4.65072393534941E14
0.3048428203998102        2.1423304171042576       2                        -1.885591672530563E15
0.30464766012635075       2.1448531016483408       2                        -6.79050697187531E15
0.3044299282669206        2.148298076648919        2                        -1.3450149964880952E16
0.30418119811522315       2.1529980238560325       2                        -2.2497697814498092E16
0.30389000436555597       2.159405653821558        2                        -3.479477139443126E16
0.30354074680544474       2.168137011134467        2                        -5.1513855586858224E16
0.30311219847117776       2.180030403768644        2                        -7.425045603117584E16
0.302986876217719         2.183768571909525        2                        -7.9294626844710752E16
0.3029348610482531        2.1853785062325324       2                        -6.7609118207847014E18
0.30286490599125615       2.1876484616692755       2                        -1.3232106253477347E20
0.30263497273425966       2.1961392731249885       2                        -6.035934231900932E20
0.30238439160033714       2.2073960606184904       2                        -1.2311443212849955E21
0.3021062478281845        2.222320420541107        2                        -2.0659048760011401E21
0.30197382965571057       2.230652220971824        2                        -3.2723264101313874E21
0.3018756089714432        2.238251575222689        2                        -4.5717623278987866E21
0.3017933177944033        2.246960964571882        2                        -6.061660423737469E21
0.3017184973913069        2.26586388923558         2                        -8.993136903632482E21
0.3017167087899252        2.2736162702272824       2                        -9.785817289328343E21
0.30171085808757975       2.2827275534491536       2                        -1.0717452872398458E22
0.301693146385308         2.2947942569654396       2                        -1.1942620265341449E22
0.3016918297021326        2.2954678169685923       2                        -1.2028347660330064E22
0.30168948509896004       2.303487051329177        2                        -1.3048949624467207E22
0.3016931496599704        2.306216515025337        2                        -1.341044391505331E22
0.30172068597477963       2.3204928266023117       2                        -1.530124179916615E22
0.30173193954028277       2.3263346946485335       2                        -1.6359159500679477E22
0.30173840097073107       2.33372539168161         2                        -1.769759691307107E22
0.30173661384353506       2.341466988731883        2                        -1.9099623949561064E22
0.3017357900095847        2.342477126540485        2                        -1.927892505375774E22
0.3017353112592098        2.3430553610351197       2                        -1.9390993649652313E22
0.3017327972470905        2.346439673830329        2                        -2.01625781826258E22
0.3017325194317786        2.3468508919445266       2                        -2.025402938300688E22
0.3017293217882615        2.3576156226529825       2                        -2.26479804211787E22
0.30173400807512357       2.368988972397152        2                        -2.517722584848099E22
0.30173701239435485       2.373368258301924        2                        -2.6510062309436568E22
0.30173962357373085       2.3776961179682408       2                        -2.784379461548302E22
0.30174605292243944       2.3890966672238036       2                        -3.1357145943881344E22
0.301748506282285         2.3941400448324917       2                        -3.3264905232722367E22
0.3017506701235992        2.39977212184708         2                        -3.539534398600218E22
0.3017510922156433        2.401043778693931        2                        -3.5893057253235174E22
0.3017529579204027        2.406621001405762        2                        -3.807592430895855E22
0.3017533965169261        2.408016277645073        2                        -3.871697434730815E22
0.30175440163093736       2.4125603707540857       2                        -4.080470838279654E22
0.3017547751663672        2.4171872938524506       2                        -4.2930469839177786E22
0.3017547052246399        2.4195683111829287       2                        -4.417957802431004E22
0.30175397925568237       2.4250859097122612       2                        -4.7291722950230344E22