% Model:              SPAD_guard ring_polygate_type2_1.mph
% Version:            COMSOL 6.2.0.415
% Date:               Nov 26 2024, 21:08
% Dimension:          2
% Nodes:              16227
% Expressions:        1
% Description:        Ionization coefficient, electrons
% Length unit:        µm
% X                       Y                        semi.iig1.alpha_n (1/m) @ Vp=-8.98
0                         0.7                      0
0.049999999999999996      0.7                      0
0.09999999999999999       0.7                      0
0.15000000000000002       0.7                      0
0.19999999999999998       0.7                      0
0.25                      0.7                      0
0.30000000000000004       0.7                      0
0.35000000000000003       0.7                      0
0.39999999999999997       0.7                      0
0.44999999999999996       0.7                      0
0.5                       0.7                      0
0.55                      0.7                      0
0.6000000000000001        0.7                      0
0.65                      0.7                      0
0.7000000000000001        0.7                      0
0.75                      0.7                      0
0.7999999999999999        0.7                      0
0.85                      0.7                      0
0.8999999999999999        0.7                      0
0.95                      0.7                      0
1                         0.7                      0
1.0499999999999998        0.7                      0
1.1                       0.7                      0
1.15                      0.7                      2.3617331788983942E-173
1.2000000000000002        0.7                      167840.00736098923
1.25                      0.7                      4510982.750688112
1.3                       0.7                      1.2256102893404894E7
0                         0.701                    0
0.049999999999999996      0.701                    0
0.09999999999999999       0.701                    0
0.15000000000000002       0.701                    0
0.19999999999999998       0.701                    0
0.25                      0.701                    0
0.30000000000000004       0.701                    0
0.35000000000000003       0.701                    0
0.39999999999999997       0.701                    0
0.44999999999999996       0.701                    0
0.5                       0.701                    0
0.55                      0.701                    0
0.6000000000000001        0.701                    0
0.65                      0.701                    0
0.7000000000000001        0.701                    0
0.75                      0.701                    0
0.7999999999999999        0.701                    0
0.85                      0.701                    0
0.8999999999999999        0.701                    0
0.95                      0.701                    0
1                         0.701                    0
1.0499999999999998        0.701                    0
1.1                       0.701                    0
1.15                      0.701                    3.306842748953327E-194
1.2000000000000002        0.701                    167980.0607909341
1.25                      0.701                    4513463.79208385
1.3                       0.701                    1.2267425464993827E7
0                         0.702                    0
0.049999999999999996      0.702                    0
0.09999999999999999       0.702                    0
0.15000000000000002       0.702                    0
0.19999999999999998       0.702                    0
0.25                      0.702                    0
0.30000000000000004       0.702                    0
0.35000000000000003       0.702                    0
0.39999999999999997       0.702                    0
0.44999999999999996       0.702                    0
0.5                       0.702                    0
0.55                      0.702                    0
0.6000000000000001        0.702                    0
0.65                      0.702                    0
0.7000000000000001        0.702                    0
0.75                      0.702                    0
0.7999999999999999        0.702                    0
0.85                      0.702                    0
0.8999999999999999        0.702                    0
0.95                      0.702                    0
1                         0.702                    0
1.0499999999999998        0.702                    0
1.1                       0.702                    0
1.15                      0.702                    6.259689535317784E-219
1.2000000000000002        0.702                    168113.35919392874
1.25                      0.702                    4515316.348836029
1.3                       0.702                    1.2267341576010797E7
0                         0.7029999999999998       0
0.049999999999999996      0.7029999999999998       0
0.09999999999999999       0.7029999999999998       0
0.15000000000000002       0.7029999999999998       0
0.19999999999999998       0.7029999999999998       0
0.25                      0.7029999999999998       0
0.30000000000000004       0.7029999999999998       0
0.35000000000000003       0.7029999999999998       0
0.39999999999999997       0.7029999999999998       0
0.44999999999999996       0.7029999999999998       0
0.5                       0.7029999999999998       0
0.55                      0.7029999999999998       0
0.6000000000000001        0.7029999999999998       0
0.65                      0.7029999999999998       0
0.7000000000000001        0.7029999999999998       0
0.75                      0.7029999999999998       0
0.7999999999999999        0.7029999999999998       0
0.85                      0.7029999999999998       0
0.8999999999999999        0.7029999999999998       0
0.95                      0.7029999999999998       0
1                         0.7029999999999998       0
1.0499999999999998        0.7029999999999998       0
1.1                       0.7029999999999998       0
1.15                      0.7029999999999998       1.5281352322582037E-248
1.2000000000000002        0.7029999999999998       168239.8911161122
1.25                      0.7029999999999998       4516539.954705835
1.3                       0.7029999999999998       1.2255839481956141E7
0                         0.704                    0
0.049999999999999996      0.704                    0
0.09999999999999999       0.704                    0
0.15000000000000002       0.704                    0
0.19999999999999998       0.704                    0
0.25                      0.704                    0
0.30000000000000004       0.704                    0
0.35000000000000003       0.704                    0
0.39999999999999997       0.704                    0
0.44999999999999996       0.704                    0
0.5                       0.704                    0
0.55                      0.704                    0
0.6000000000000001        0.704                    0
0.65                      0.704                    0
0.7000000000000001        0.704                    0
0.75                      0.704                    0
0.7999999999999999        0.704                    0
0.85                      0.704                    0
0.8999999999999999        0.704                    0
0.95                      0.704                    0
1                         0.704                    0
1.0499999999999998        0.704                    0
1.1                       0.704                    0
1.15                      0.704                    1.2282781998867578E-263
1.2000000000000002        0.704                    168359.64568338246
1.25                      0.704                    4427510.728620439
1.3                       0.704                    1.223293762044824E7
0                         0.705                    0
0.049999999999999996      0.705                    0
0.09999999999999999       0.705                    0
0.15000000000000002       0.705                    0
0.19999999999999998       0.705                    0
0.25                      0.705                    0
0.30000000000000004       0.705                    0
0.35000000000000003       0.705                    0
0.39999999999999997       0.705                    0
0.44999999999999996       0.705                    0
0.5                       0.705                    0
0.55                      0.705                    0
0.6000000000000001        0.705                    0
0.65                      0.705                    0
0.7000000000000001        0.705                    0
0.75                      0.705                    0
0.7999999999999999        0.705                    0
0.85                      0.705                    0
0.8999999999999999        0.705                    0
0.95                      0.705                    0
1                         0.705                    0
1.0499999999999998        0.705                    0
1.1                       0.705                    0
1.15                      0.705                    7.411403839332881E-225
1.2000000000000002        0.705                    168472.61260213755
1.25                      0.705                    4427673.989379594
1.3                       0.705                    1.2198684547396546E7
0                         0.7059999999999998       0
0.049999999999999996      0.7059999999999998       0
0.09999999999999999       0.7059999999999998       0
0.15000000000000002       0.7059999999999998       0
0.19999999999999998       0.7059999999999998       0
0.25                      0.7059999999999998       0
0.30000000000000004       0.7059999999999998       0
0.35000000000000003       0.7059999999999998       0
0.39999999999999997       0.7059999999999998       0
0.44999999999999996       0.7059999999999998       0
0.5                       0.7059999999999998       0
0.55                      0.7059999999999998       0
0.6000000000000001        0.7059999999999998       0
0.65                      0.7059999999999998       0
0.7000000000000001        0.7059999999999998       0
0.75                      0.7059999999999998       0
0.7999999999999999        0.7059999999999998       0
0.85                      0.7059999999999998       0
0.8999999999999999        0.7059999999999998       0
0.95                      0.7059999999999998       0
1                         0.7059999999999998       0
1.0499999999999998        0.7059999999999998       0
1.1                       0.7059999999999998       0
1.15                      0.7059999999999998       6.88739862308537E-194
1.2000000000000002        0.7059999999999998       168578.78215998047
1.25                      0.7059999999999998       4427229.660353818
1.3                       0.7059999999999998       1.2153158697403753E7
0                         0.707                    0
0.049999999999999996      0.707                    0
0.09999999999999999       0.707                    0
0.15000000000000002       0.707                    0
0.19999999999999998       0.707                    0
0.25                      0.707                    0
0.30000000000000004       0.707                    0
0.35000000000000003       0.707                    0
0.39999999999999997       0.707                    0
0.44999999999999996       0.707                    0
0.5                       0.707                    0
0.55                      0.707                    0
0.6000000000000001        0.707                    0
0.65                      0.707                    0
0.7000000000000001        0.707                    0
0.75                      0.707                    0
0.7999999999999999        0.707                    0
0.85                      0.707                    0
0.8999999999999999        0.707                    0
0.95                      0.707                    0
1                         0.707                    0
1.0499999999999998        0.707                    0
1.1                       0.707                    0
1.15                      0.707                    9.12443778675792E-169
1.2000000000000002        0.707                    415465.69619348005
1.25                      0.707                    4426177.768070524
1.3                       0.707                    1.2118295590130962E7
0                         0.708                    0
0.049999999999999996      0.708                    0
0.09999999999999999       0.708                    0
0.15000000000000002       0.708                    0
0.19999999999999998       0.708                    0
0.25                      0.708                    0
0.30000000000000004       0.708                    0
0.35000000000000003       0.708                    0
0.39999999999999997       0.708                    0
0.44999999999999996       0.708                    0
0.5                       0.708                    0
0.55                      0.708                    0
0.6000000000000001        0.708                    0
0.65                      0.708                    0
0.7000000000000001        0.708                    0
0.75                      0.708                    0
0.7999999999999999        0.708                    0
0.85                      0.708                    0
0.8999999999999999        0.708                    0
0.95                      0.708                    0
1                         0.708                    0
1.0499999999999998        0.708                    0
1.1                       0.708                    0
1.15                      0.708                    4.176842276247009E-148
1.2000000000000002        0.708                    228934.72543568327
1.25                      0.708                    4424518.466869596
1.3                       0.708                    1.216984635861805E7
0                         0.7089999999999999       0
0.049999999999999996      0.7089999999999999       0
0.09999999999999999       0.7089999999999999       0
0.15000000000000002       0.7089999999999999       0
0.19999999999999998       0.7089999999999999       0
0.25                      0.7089999999999999       0
0.30000000000000004       0.7089999999999999       0
0.35000000000000003       0.7089999999999999       0
0.39999999999999997       0.7089999999999999       0
0.44999999999999996       0.7089999999999999       0
0.5                       0.7089999999999999       0
0.55                      0.7089999999999999       0
0.6000000000000001        0.7089999999999999       0
0.65                      0.7089999999999999       0
0.7000000000000001        0.7089999999999999       0
0.75                      0.7089999999999999       0
0.7999999999999999        0.7089999999999999       0
0.85                      0.7089999999999999       0
0.8999999999999999        0.7089999999999999       0
0.95                      0.7089999999999999       0
1                         0.7089999999999999       0
1.0499999999999998        0.7089999999999999       0
1.1                       0.7089999999999999       0
1.15                      0.7089999999999999       6.570493285357714E-131
1.2000000000000002        0.7089999999999999       229122.1898310161
1.25                      0.7089999999999999       4422252.038978402
1.3                       0.7089999999999999       1.2210281709185248E7
0                         0.71                     0
0.049999999999999996      0.71                     0
0.09999999999999999       0.71                     0
0.15000000000000002       0.71                     0
0.19999999999999998       0.71                     0
0.25                      0.71                     0
0.30000000000000004       0.71                     0
0.35000000000000003       0.71                     0
0.39999999999999997       0.71                     0
0.44999999999999996       0.71                     0
0.5                       0.71                     0
0.55                      0.71                     0
0.6000000000000001        0.71                     0
0.65                      0.71                     0
0.7000000000000001        0.71                     0
0.75                      0.71                     0
0.7999999999999999        0.71                     0
0.85                      0.71                     0
0.8999999999999999        0.71                     0
0.95                      0.71                     0
1                         0.71                     0
1.0499999999999998        0.71                     0
1.1                       0.71                     0
1.15                      0.71                     1.923233758794991E-116
1.2000000000000002        0.71                     229298.1944896245
1.25                      0.71                     4419378.894600242
1.3                       0.71                     1.2239483279046597E7
0                         0.711                    0
0.049999999999999996      0.711                    0
0.09999999999999999       0.711                    0
0.15000000000000002       0.711                    0
0.19999999999999998       0.711                    0
0.25                      0.711                    0
0.30000000000000004       0.711                    0
0.35000000000000003       0.711                    0
0.39999999999999997       0.711                    0
0.44999999999999996       0.711                    0
0.5                       0.711                    0
0.55                      0.711                    0
0.6000000000000001        0.711                    0
0.65                      0.711                    0
0.7000000000000001        0.711                    0
0.75                      0.711                    0
0.7999999999999999        0.711                    0
0.85                      0.711                    0
0.8999999999999999        0.711                    0
0.95                      0.711                    0
1                         0.711                    0
1.0499999999999998        0.711                    0
1.1                       0.711                    0
1.15                      0.711                    3.7095095570554424E-104
1.2000000000000002        0.711                    204980.28289360474
1.25                      0.711                    4415899.572016196
1.3                       0.711                    1.2257361657400522E7
0                         0.712                    0
0.049999999999999996      0.712                    0
0.09999999999999999       0.712                    0
0.15000000000000002       0.712                    0
0.19999999999999998       0.712                    0
0.25                      0.712                    0
0.30000000000000004       0.712                    0
0.35000000000000003       0.712                    0
0.39999999999999997       0.712                    0
0.44999999999999996       0.712                    0
0.5                       0.712                    0
0.55                      0.712                    0
0.6000000000000001        0.712                    0
0.65                      0.712                    0
0.7000000000000001        0.712                    0
0.75                      0.712                    0
0.7999999999999999        0.712                    0
0.85                      0.712                    0
0.8999999999999999        0.712                    0
0.95                      0.712                    0
1                         0.712                    0
1.0499999999999998        0.712                    0
1.1                       0.712                    0
1.15                      0.712                    1.2335747650622597E-93
1.2000000000000002        0.712                    205311.62367677648
1.25                      0.712                    4411814.737700354
1.3                       0.712                    1.2263856949111221E7
0                         0.7129999999999999       0
0.049999999999999996      0.7129999999999999       0
0.09999999999999999       0.7129999999999999       0
0.15000000000000002       0.7129999999999999       0
0.19999999999999998       0.7129999999999999       0
0.25                      0.7129999999999999       0
0.30000000000000004       0.7129999999999999       0
0.35000000000000003       0.7129999999999999       0
0.39999999999999997       0.7129999999999999       0
0.44999999999999996       0.7129999999999999       0
0.5                       0.7129999999999999       0
0.55                      0.7129999999999999       0
0.6000000000000001        0.7129999999999999       0
0.65                      0.7129999999999999       0
0.7000000000000001        0.7129999999999999       0
0.75                      0.7129999999999999       0
0.7999999999999999        0.7129999999999999       0
0.85                      0.7129999999999999       0
0.8999999999999999        0.7129999999999999       0
0.95                      0.7129999999999999       0
1                         0.7129999999999999       0
1.0499999999999998        0.7129999999999999       0
1.1                       0.7129999999999999       0
1.15                      0.7129999999999999       1.4854897604376584E-84
1.2000000000000002        0.7129999999999999       205635.97614352108
1.25                      0.7129999999999999       4057378.3306945222
1.3                       0.7129999999999999       1.2258939170466704E7
0                         0.714                    0
0.049999999999999996      0.714                    0
0.09999999999999999       0.714                    0
0.15000000000000002       0.714                    0
0.19999999999999998       0.714                    0
0.25                      0.714                    0
0.30000000000000004       0.714                    0
0.35000000000000003       0.714                    0
0.39999999999999997       0.714                    0
0.44999999999999996       0.714                    0
0.5                       0.714                    0
0.55                      0.714                    0
0.6000000000000001        0.714                    0
0.65                      0.714                    0
0.7000000000000001        0.714                    0
0.75                      0.714                    0
0.7999999999999999        0.714                    0
0.85                      0.714                    0
0.8999999999999999        0.714                    0
0.95                      0.714                    0
1                         0.714                    0
1.0499999999999998        0.714                    0
1.1                       0.714                    0
1.15                      0.714                    1.1569346421910482E-76
1.2000000000000002        0.714                    205953.31633498144
1.25                      0.714                    4057872.902378196
1.3                       0.714                    1.2242608471783685E7
0                         0.715                    0
0.049999999999999996      0.715                    0
0.09999999999999999       0.715                    0
0.15000000000000002       0.715                    0
0.19999999999999998       0.715                    0
0.25                      0.715                    0
0.30000000000000004       0.715                    0
0.35000000000000003       0.715                    0
0.39999999999999997       0.715                    0
0.44999999999999996       0.715                    0
0.5                       0.715                    0
0.55                      0.715                    0
0.6000000000000001        0.715                    0
0.65                      0.715                    0
0.7000000000000001        0.715                    0
0.75                      0.715                    0
0.7999999999999999        0.715                    0
0.85                      0.715                    0
0.8999999999999999        0.715                    0
0.95                      0.715                    0
1                         0.715                    0
1.0499999999999998        0.715                    0
1.1                       0.715                    0
1.15                      0.715                    1.1504514858646029E-63
1.2000000000000002        0.715                    206263.62081515134
1.25                      0.715                    4003983.2491262536
1.3                       0.715                    1.2214895183935594E7
0                         0.7159999999999999       0
0.049999999999999996      0.7159999999999999       0
0.09999999999999999       0.7159999999999999       0
0.15000000000000002       0.7159999999999999       0
0.19999999999999998       0.7159999999999999       0
0.25                      0.7159999999999999       0
0.30000000000000004       0.7159999999999999       0
0.35000000000000003       0.7159999999999999       0
0.39999999999999997       0.7159999999999999       0
0.44999999999999996       0.7159999999999999       0
0.5                       0.7159999999999999       0
0.55                      0.7159999999999999       0
0.6000000000000001        0.7159999999999999       0
0.65                      0.7159999999999999       0
0.7000000000000001        0.7159999999999999       0
0.75                      0.7159999999999999       0
0.7999999999999999        0.7159999999999999       0
0.85                      0.7159999999999999       0
0.8999999999999999        0.7159999999999999       0
0.95                      0.7159999999999999       0
1                         0.7159999999999999       0
1.0499999999999998        0.7159999999999999       0
1.1                       0.7159999999999999       0
1.15                      0.7159999999999999       2.487285552980754E-69
1.2000000000000002        0.7159999999999999       206566.86667218857
1.25                      0.7159999999999999       4003591.2787027475
1.3                       0.7159999999999999       1.2175859688253062E7
0                         0.717                    0
0.049999999999999996      0.717                    0
0.09999999999999999       0.717                    0
0.15000000000000002       0.717                    0
0.19999999999999998       0.717                    0
0.25                      0.717                    0
0.30000000000000004       0.717                    0
0.35000000000000003       0.717                    0
0.39999999999999997       0.717                    0
0.44999999999999996       0.717                    0
0.5                       0.717                    0
0.55                      0.717                    0
0.6000000000000001        0.717                    0
0.65                      0.717                    0
0.7000000000000001        0.717                    0
0.75                      0.717                    0
0.7999999999999999        0.717                    0
0.85                      0.717                    0
0.8999999999999999        0.717                    0
0.95                      0.717                    0
1                         0.717                    0
1.0499999999999998        0.717                    0
1.1                       0.717                    0
1.15                      0.717                    1.0187784166200572E-75
1.2000000000000002        0.717                    206863.03151968415
1.25                      0.717                    4498793.034606227
1.3                       0.717                    1.212559211163235E7
0                         0.718                    0
0.049999999999999996      0.718                    0
0.09999999999999999       0.718                    0
0.15000000000000002       0.718                    0
0.19999999999999998       0.718                    0
0.25                      0.718                    0
0.30000000000000004       0.718                    0
0.35000000000000003       0.718                    0
0.39999999999999997       0.718                    0
0.44999999999999996       0.718                    0
0.5                       0.718                    0
0.55                      0.718                    0
0.6000000000000001        0.718                    0
0.65                      0.718                    0
0.7000000000000001        0.718                    0
0.75                      0.718                    0
0.7999999999999999        0.718                    0
0.85                      0.718                    0
0.8999999999999999        0.718                    0
0.95                      0.718                    0
1                         0.718                    0
1.0499999999999998        0.718                    0
1.1                       0.718                    0
1.15                      0.718                    5.880407279325653E-83
1.2000000000000002        0.718                    207152.09349790635
1.25                      0.718                    4504334.079653969
1.3                       0.718                    1.2136247724548085E7
0                         0.7189999999999999       0
0.049999999999999996      0.7189999999999999       0
0.09999999999999999       0.7189999999999999       0
0.15000000000000002       0.7189999999999999       0
0.19999999999999998       0.7189999999999999       0
0.25                      0.7189999999999999       0
0.30000000000000004       0.7189999999999999       0
0.35000000000000003       0.7189999999999999       0
0.39999999999999997       0.7189999999999999       0
0.44999999999999996       0.7189999999999999       0
0.5                       0.7189999999999999       0
0.55                      0.7189999999999999       0
0.6000000000000001        0.7189999999999999       0
0.65                      0.7189999999999999       0
0.7000000000000001        0.7189999999999999       0
0.75                      0.7189999999999999       0
0.7999999999999999        0.7189999999999999       0
0.85                      0.7189999999999999       0
0.8999999999999999        0.7189999999999999       0