% Model:              SPAD_polygate_type3_curve.mph
% Version:            COMSOL 6.2.0.415
% Date:               Dec 6 2024, 13:54
% Dimension:          2
% Nodes:              2287
% Expressions:        3
% Description:        Streamline
% X                       Y                        Streamline               Ionization coefficient, electrons Ionization coefficient, holes
0.06046807657937137       2.2111587700053916       0                        0                        0
0.06046678912549727       2.211813727908472        0                        0                        0
0.06046066453100782       2.2142065453821043       0                        0                        0
0.06045024472705625       2.2173374218390896       0                        0                        0
0.060443483117083786      2.219595104815941        0                        0                        0
0.06043770918767163       2.2228461578904124       0                        0                        0
0.060433533511738746      2.2274568741934813       0                        0                        0
0.06043161894592251       2.233995341552288        0                        0                        0
0.06043110125707547       2.2348977915390207       0                        0                        0
0.06042781075053875       2.2367487716350087       0                        0                        0
0.060420321856081524      2.2392923458803415       0                        0                        0
0.06040706659793324       2.2427874192545807       0                        0                        0
0.06038589085943981       2.247589680507531        0                        -1.6017511478278732E-117 -7.758215019439927E-206
0.060381660217285034      2.248520751609861        0                        8.026274534600396E-104   3.887592884133622E-192
0.06036564316595689       2.2524644348024245       0                        4.2010646221341477E-103  2.0348206207485946E-191
0.060346591924079845      2.258012561477155        0                        -8.279147642847002E-29   -3.5284883162086624E-44
0.0603434014489071        2.2591467007960686       0                        9.534918537909127E-15    4.0636850686050115E-30
0.060338402064257585      2.261695995592139        0                        3.097364727928629E-14    1.3200652681892217E-29
0.06033480769178026       2.2650806827666186       0                        5.944662910435534E-14    2.5335547242466777E-29
0.06033307880367081       2.2695746533115653       0                        9.726010738045115E-14    4.145126616042686E-29
0.06033382684212059       2.2755415958649685       0                        1.474764449892148E-13    6.285295867590213E-29
0.06033551579590827       2.2801644375549666       0                        1.3266970914132247E-6    2.6410394855428903E-25
0.060336191770410164      2.282162212874291        0                        0.7907117305506793       6.831019663873931E-12
0.06033715222606671       2.286374376344602        0                        2.4578033788072537       2.1233177235386246E-11
0.0603376820570623        2.291468036967686        0                        4.4736879618811844       3.864858894292403E-11
0.060337691125543366      2.297627667694141        0                        6.911358182263665        5.970784543419183E-11
0.06033752980092005       2.3006619885939323       0                        7.851802262570888        6.775528559148673E-11
0.06033748048447924       2.3014548134525263       0                        112.9099014568201        0.011283933824204118
0.060337266890096206      2.3050884180060067       0                        1504.9007696906797       0.11614094510455547
0.06033694341822572       2.311944634964565        0                        4131.422142134313        0.3139940382439985
0.06033667046490543       2.3199164236322556       0                        7185.285189996491        0.5440388126626751
0.060336658102900766      2.3203910991507497       0                        9649.383594498433        17.655562393357442
0.060336649608871806      2.3257638138044574       0                        37539.93435786902        211.3371241818238
0.060336805418464846      2.33017823331955         0                        74728.57887662768        504.17904765534104
0.06033733300193765       2.3376666214766857       0                        138085.1848739632        1013.888366185667
0.06033788396338832       2.342763700794329        0                        281275.46822850406       6122.240176260882
0.06033865042696919       2.348208389656422        0                        434231.58711548196       11579.009112922195
0.060339617795101316      2.35396927504279         0                        638154.283658174         20520.53442361707
0.06034044543344917       2.3585751375299053       0                        926051.9293795191        50011.61269170829
0.06034135630366737       2.363620816073703        0                        1241441.0783593366       82318.81256358187
0.060342319519311204      2.3689326880014003       0                        1573469.1371461363       116330.43814590888
0.06034232742649593       2.3689761979346047       0                        1576529.4996727656       116685.26967842842
0.060342348241226335      2.3690908063519776       0                        1587265.1829297931       118704.21406636556
0.0603424766505121        2.369803922852936        0                        1653075.5348879907       130736.1997209982
0.06034355861272575       2.376302446142823        0                        2252795.45292405         240381.90834195615
0.06034454353027064       2.383196305405911        0                        2888999.343330216        356697.950038004
0.060344666998548596      2.384136587319074        0                        2994140.5521441824       383801.42518048553
0.0603452471412325        2.3885704599545976       0                        3489930.9285785956       511607.08814953896
0.060345429001331705      2.3899569481505227       0                        3649993.7248970447       553227.9426565242
0.06034628500976909       2.39630209510097         0                        4382507.666425316        743702.3079892555
0.06034655948901539       2.398174568200904        0                        4622807.257809859        821357.0254259446
0.0603472801182953        2.4023268474078794       0                        5155680.767675551        993559.5833497273
0.06034817742594454       2.4066066093104244       0                        5704914.718590002        1171049.5142863034
0.060348587131076284      2.4083905707223456       0                        5938127.498162488        1246564.0618620368
0.06034925783215713       2.4119006016945574       0                        6425289.479910679        1429015.0928804267
0.0603494693524122        2.413624341674282        0                        6663288.5385258915       1516938.0550348111
0.060349477951152954      2.4197995593698094       0                        7515909.72623017         1831916.8250564693
0.06034945257626859       2.420153374831864        0                        7566596.88677604         1853214.4684822848
0.060350081729998735      2.4239531088685933       0                        8110941.790016579        2081938.9124486279
0.06035039520158711       2.424753318373436        0                        8228198.445285503        2129942.3911531344
0.06035315594168633       2.4306471441977093       0                        9091833.428778073        2483506.303358685
0.06035409360001957       2.432549142442966        0                        9385140.918200057        2611941.912638925
0.0603554246812648        2.436120929990122        0                        9935948.199714206        2853131.225168852
0.06035622310620687       2.439767729507725        0                        1.0498324794285046E7     3099383.713418145
0.06035630981600583       2.4409209711982203       0                        1.0673120249254528E7     3175130.9657817776
0.060356385785340486      2.442050366366515        0                        1.0859067505960083E7     3259344.779549949
0.060356718977000456      2.4438287023335548       0                        1.1136717062478255E7     3388130.9421457523
0.060359849045307654      2.4505527304607657       0                        1.2186544685268512E7     3875089.442844585
0.06036016489492362       2.451051134807292        0                        1.2266072514182402E7     3913859.6407054295
0.060361034498518915      2.4539525320342683       0                        1.2729026874761842E7     4139551.157988946
0.06036025506150118       2.4568987006261542       0                        1.319911351494189E7      4368718.046261274
0.060358944682286524      2.458838400632418        0                        1.3488382435084842E7     4519529.438888898
0.06035756129077662       2.4607686052384974       0                        1.37955497069315E7       4670274.380400126
0.0603560507981768        2.4638797901525336       0                        1.4290650043741662E7     4913254.527585038
0.06035555514630225       2.4672104173325753       0                        1.4812044506882448E7     5177375.58310354
0.060355599434232216      2.4682819693143014       0                        1.4987441133059554E7     5260674.498938882
0.060355651597273935      2.469770752400589        0                        1.5227807818709636E7     5384362.1680026455
0.060355732579389434      2.472294255914983        0                        1.5635231977546152E7     5594014.081462116
0.06035580099989473       2.4757067626387057       0                        1.618360919867299E7      5872241.509108341
0.06035581006612138       2.4769548784746624       0                        1.6378264923938552E7     5975515.852508875
0.060355771598838724      2.478715650702463        0                        1.664970006435217E7      6119499.792614976
0.06035556776212926       2.481137162327502        0                        1.7022993314739797E7     6317514.648805719
0.060355551386457255      2.4812710991628397       0                        1.7043673420505587E7     6328873.448762152
0.060355298279602544      2.482930087734706        0                        1.7299824650629714E7     6469567.544259593
0.06035494989660912       2.484601782976858        0                        1.7557938177065067E7     6611339.292088514
0.06035471366384783       2.485629773636156        0                        1.7710641727749377E7     6697691.154387904
0.06035447396437207       2.486728261201499        0                        1.78607985512884E7       6791590.196531474
0.060354417941696034      2.4869960295720994       0                        1.789672531881093E7      6814436.490962592
0.060353876910467785      2.490435880907409        0                        1.8358254253309462E7     7107928.549147742
0.06035384285330972       2.4907584806874175       0                        1.8378373276535146E7     7134881.473835994
0.06035369967100186       2.492483174773237        0                        1.8485934377872895E7     7278978.158030634
0.06035362107909537       2.494221098513153        0                        1.859432069354961E7      7424180.214419766
0.060353614587690084      2.4952556674354716       0                        1.8647926174696535E7     7503842.263584634
0.06035363873945936       2.4962446455946754       0                        1.6154289403007682E7     7557270.884304002
0.060353651338091015      2.4966092681076604       0                        1.5231659067549082E7     7579101.57704682
0.060353753208847415      2.5                      0                        6651848.290864795        7782111.247594407
0.06034470542166155       2.501471451628197        0                        9351492.794825645        31409.534622924344
0.060339964297708715      2.502587708929675        0                        6407908.877969064        17226.90610841966
0.06033848874438885       2.5034345127760167       0                        4173092.602430516        6512.251763226186
0.06033883384778887       2.5038688215011957       0                        3025973.167106345        1039.9999954709892
0.060344040075448996      2.504714312999822        0                        422389.08960866596       0.19746085031344066
0.060351621064281755      2.50549928013947         0                        345449.1897902971        5.856055447760215E-10
0.0603707408950204        2.507386964873821        0                        180406.36945633247       3.0582518464934317E-10
0.06038234783766115       2.5084511428372673       0                        87363.55849039095        1.480988530918506E-10
0.060389719060944896      2.5090510696248796       0                        34910.685930999694       5.91806542266651E-11
0.0603947020658401        2.5093892752445477       0                        5340.3534609039425       9.052976279027822E-12
0.06039570539353793       2.509450354199012        0                        8.979851488522111E-13    1.5222659531794912E-27
0.06041958301610598       2.510841994539691        0                        4.931395600611893E-88    3.7725437718915866E-165
0.06043717500193168       2.5118422147671247       0                        3.224854183442739E-88    2.4573443071583152E-165
0.06045024807977357       2.512561108909725        0                        1.9995888481501401E-88   1.5131133553983395E-165
0.06046007205719498       2.5130778050441114       0                        1.120228293650539E-88    8.355062977347481E-166
0.06046755958869615       2.5134491750333687       0                        4.894768745812655E-89    3.49527349319625E-166
0.06047336663151216       2.513716094492699        0                        3.7405129215120645E-90   1.274664891065538E-168
0.06048069640361333       2.5140244607925504       0                        7.371660157221716E-91    3.7638025272666825E-177
0.06048269314140023       2.5141043039850204       0                        0                        0
0.060492834602277244      2.5145025447727014       0                        0                        0
0.06053556257898063       2.516227867696347        0                        0                        0
0.06056005058017346       2.517281378194352        0                        0                        0
0.06057043342332897       2.517765756814889        0                        0                        0
0.18218498140990838       2.2103394005500503       1                        0                        0
0.1821827515380977        2.2103695863853376       1                        0                        0
0.18216390932782686       2.2106238666873237       1                        0                        0
0.1821447870119005        2.210880521864975        1                        0                        0
0.1819236846525382        2.213761924843233        1                        0                        0
0.1819008435272521        2.214105446213472        1                        0                        0
0.18186933693996868       2.2149976560961173       1                        0                        0
0.18186730891188058       2.21623588318849         1                        0                        0
0.1819059301392369        2.2179539476169583       1                        0                        0
0.18200069296278043       2.2203374257107464       1                        0                        0
0.18217308279675504       2.2236436671928153       1                        0                        0
0.18239960368632563       2.227819753484593        1                        0                        0
0.1829616175433599        2.2397203780673043       1                        5.5544835015263624E-67   1.6742341781168033E-114
0.18297272926006794       2.240036028643363        1                        3.2666617957322524E-53   9.846382341869291E-101
0.18298587517962012       2.2413548743186262       1                        1.691241450202225E-52    5.097745341395455E-100
0.18294384947253772       2.2431602958966534       1                        3.5587310135854496E-52   1.0726738304347696E-99
0.18282618090419855       2.245631359911326        1                        6.1142126665673725E-52   1.8429479205093987E-99
0.18260486422402705       2.2490130305528115       1                        9.610874042233957E-52    2.8969127010030635E-99
0.18224158759741516       2.2536404204327996       1                        1.439507747171837E-51    4.338968815582453E-99
0.18168393971459196       2.2599719657887385       1                        2.0940648877829556E-51   6.311937024130367E-99
0.18131975185572075       2.264110925306844        1                        4.033730068956904E-20    3.4983863698383023E-37
0.18129574417180938       2.264404088498825        1                        3.243551450496792E-4     2.813077719705112E-21
0.18112577887645354       2.2668109184250804       1                        0.002984796439541076     2.588663858678162E-20
0.1809515755981425        2.270552797113536        1                        0.004650990560932795     3.5774766743676255E-14
0.180813120763564         2.2776302082751023       1                        0.00795731284448707      1.0093595517582056E-13
0.18084108504789237       2.288223926986031        1                        0.013097017994009091     1.9538928833675307E-13
0.18084754900402614       2.2887858728356734       1                        2.8875998761003987       2.4742529456769203E-7
0.18088450339381934       2.293336152144545        1                        26.176567318922604       2.2520427057764217E-6
0.18089837734430692       2.2986434884121323       1                        53.36509692635556        4.59232044662111E-6
0.18088535539346207       2.3048339083608367       1                        85.10232327318089        7.324133691853107E-6
0.18086875244777736       2.308892485555634        1                        866.8444853285145        0.04093007499726248
0.18086022109084882       2.311334246062227        1                        4980.302004143665        36.00226251585848
0.1808453665940577        2.3180783579686355       1                        16335.836248625199       135.2567853344562
0.18084145918592992       2.3257830599822564       1                        29300.108075665506       248.54318145706353
0.1808462375426529        2.331274865315231        1                        61277.69753233426        720.0172064121712
0.1808571225790899        2.33639845159598         1                        181305.8544195131        5911.253347225849
0.18087848119713532       2.3425258175430823       1                        324805.1493218859        12116.918190685468
0.18093127356562086       2.352286984866042        1                        504609.6141332062        18852.36341897464
0.18096199398431498       2.3576257096500575       1                        760898.0008530235        46577.28265904475
0.18098656772998936       2.3639554299617505       1                        1166764.3319212135       96108.06587228877
0.18100141389748134       2.37216000656817         1                        1692623.2771998232       160279.364811076
0.18100489371059963       2.3762699160207523       1                        2079638.5942942053       240513.439211865
0.1810112569651297        2.3817903700602727       1                        2599488.115847835        348281.89472194284
0.18102127452344755       2.3883844038820983       1                        3292105.365470314        503516.41660916596
0.18102631959122178       2.392133369424516        1                        3776125.0141263586       634865.2121094585
0.1810288702659632        2.397045241533498        1                        4410254.351446653        806962.5395658057
0.1810269595183932        2.402142756490278        1                        5068316.415754902        985569.7682220945
0.18102638180697078       2.4028375026145126       1                        5155754.844516222        1013510.2201827235
0.1810251653242114        2.404664801086964        1                        5416584.631392155        1103645.7496114564
0.1810254864026364        2.408852608366264        1                        6008255.715059426        1303973.6696297429
0.18103709120476658       2.4163202087983473       1                        7063336.89146271         1661226.1807611044
0.1810438670932408        2.419893210794134        1                        7565022.878877433        1863325.1623055954
0.18104606170440532       2.421717424242797        1                        7837886.457763517        1972877.5770950771
0.1810492518395337        2.4254540181070974       1                        8396791.51747221         2197275.463813143
0.18105076270291132       2.429279275607355        1                        8968945.085306           2426995.5810415987
0.18105095581205438       2.4304191040849674       1                        9144390.216787448        2496079.1044594366
0.18105096806009477       2.430489581614286        1                        9155147.38752466         2500642.2984460364
0.1810518935229526        2.433500770614984        1                        9614754.864449922        2695608.166801035
0.1810524349685155        2.434655257042005        1                        9787932.709809259        2769237.1854967093
0.1810556245650664        2.4397044456316404       1                        1.054532923950015E7      3091256.0229162043
0.18105615071720316       2.4403984393565548       1                        1.0651516668976158E7     3140400.985025674
0.18105865374625607       2.4438354185032676       1                        1.1177406486071482E7     3383789.6428751685
0.18106174378683315       2.4494711798828033       1                        1.2020486368951384E7     3781379.4168088036
0.18106219121715847       2.4509394816723358       1                        1.2249220147679951E7     3894924.835774523
0.18106221074944007       2.4545469302276093       1                        1.2811188999990616E7     4173891.7468741923
0.18106043536014926       2.4595061193442884       1                        1.3588992888873432E7     4555369.733607003
0.18106021811135442       2.4599314636350837       1                        1.365535346692513E7      4588893.314710572
0.1810586498039624        2.462987519889886        1                        1.4132147554316135E7     4829756.893099921
0.1810581623622848        2.4651136843949293       1                        1.4480120556579897E7     4998464.691105744
0.18105981382121167       2.4684555388803204       1                        1.5027049663979487E7     5263635.594701132
0.18106068573409498       2.4695238825232892       1                        1.5195090472026147E7     5346516.409862636
0.18106159897444846       2.4713138256563805       1                        1.547663460633572E7      5485378.252395994
0.1810618348829411        2.4731187109954873       1                        1.5760531838344295E7     5625399.553498217
0.18106178956894084       2.4734899926412193       1                        1.581827724808955E7      5655583.25163296
0.18106167191521624       2.4742126210317954       1                        1.5930760506439548E7     5716340.243638175
0.1810615172938428        2.4763879255629964       1                        1.6269364827948561E7     5899234.194845343
0.18106153562606092       2.477173595403132        1                        1.6392341249722626E7     5965925.654904388
0.18106182497701145       2.4795005922620854       1                        1.6756575246146983E7     6163454.090776237
0.1810618750371553        2.47978277492696         1                        1.6799922202806316E7     6185642.459807319
0.18106195928140414       2.480312821145263        1                        1.688715425946042E7      6231016.376267391
0.18106216982603127       2.4817940825734026       1                        1.712383623148052E7      6357124.938396201
0.18106243619816398       2.4855768352817673       1                        1.772825536700551E7      6679172.913424009
0.1810624382107364        2.4856842992300163       1                        1.7743900748265233E7     6688427.157739144
0.18106245593223239       2.487403840378421        1                        1.7994243784083612E7     6836505.216997415
0.18106244643855024       2.4891367933201494       1                        1.8246538950515978E7     6985738.213488233
0.18106239377565228       2.4903858208090446       1                        1.8423369973268606E7     7093385.437968543
0.18106227934433583       2.491783316887316        1                        1.8561940139294557E7     6485115.240207723
0.1810622647601331        2.4919412221847623       1                        1.857047554417964E7      6398061.690274559
0.18106199293858793       2.4952009104370507       1                        1.8746677414891094E7     4600994.7828932125
0.1810618758520455        2.4964700809797717       1                        1.7184425047443874E7     4147664.941397937
0.18106164585395468       2.4981979233913125       1                        1.5057575513086453E7     3530487.9425961534
0.18106125962654224       2.5                      1                        1.2777715311281389E7     2117582.879156064
0.1810525988356021        2.5014711884103678       1                        8133883.675300623        6461.958013436648
0.18105047014782286       2.501930408509004        1                        7215292.041334044        2419.595570227873
0.18104762470290797       2.5035976407432          1                        3070987.365179266        972.1817749469358
0.1810520265048432        2.5045984042152387       1                        583037.4231698222        103.33889597830088
0.18105301049376893       2.504716502846125        1                        289414.3091720844        0.8060144578090447
0.1810663646797618        2.506137864107294        1                        186801.3072331626        0.35983867548950327
0.18107666043526216       2.507163313601667        1                        112743.64548151683       0.03758758695156245
0.18107791071290302       2.5072828369318696       1                        104109.66186923707       5.959418932518517E-10
0.1810902582183733        2.508374887647483        1                        50991.6934533075         2.918852085951013E-10
0.181098409961513         2.5089928376844286       1                        20933.7720805909         1.19828505715753E-10
0.1811041866110703        2.5093425084033343       1                        3924.838268376638        2.2466448142503166E-11
0.18110572684367193       2.509423193716943        1                        3.470409682974744E-13    1.9865220894322705E-27
0.18113486997708517       2.510810796152546        1                        1.810325957557013E-87    3.773071491076204E-164
0.18115796171816262       2.5118084670387235       1                        1.1383750844849045E-87   2.5300776004281104E-165
0.18115971965195327       2.511880357566606        1                        1.0899869700168327E-87   5.839497930909523E-182
0.1811875626456068        2.512982856661989        1                        5.502621217945803E-88    3.883565961737171E-215
0.18120429996123405       2.5136055637071513       1                        2.4539710984845974E-88   1.731930702058988E-215
0.18121476409692072       2.513957261724846        1                        7.319193979820375E-89    5.165642242406297E-216
0.18121972135971845       2.5141067216259376       1                        0                        0
0.18126207732528918       2.5153115338704017       1                        0                        0
0.18129342235379708       2.516193284941763        1                        0                        0
0.18133089715031167       2.517245550533576        1                        0                        0
0.18135329045862458       2.517880232181688        1                        0                        0
0.30576473098207424       2.2030901506057097       2                        0                        0
0.3054767707166488        2.205251075708711        2                        0                        0
0.30498075717090006       2.208833185303937        2                        0                        0
0.3043322107325982        2.213356152788431        2                        0                        0
0.30349114167495495       2.219067135825166        2                        0                        0
0.3033370567418221        2.2201508122377898       2                        0                        0
0.3028103661982489        2.2247904034680266       2                        3.8685262237378886E-47   7.278856765932036E-75
0.30278834739740723       2.225060004413779        2                        2.5445033215878308E-30   4.7876307790361805E-58
0.3027489769790751        2.225645392466269        2                        8.053538534493006E-30    1.5153200485441665E-57
0.30270505338659215       2.2264717323420875       2                        1.5808227271712816E-29   2.9744097720738217E-57
0.30265479788192245       2.227637458359582        2                        2.6725817211670837E-29   5.028617726372008E-57
0.30259570573786315       2.229281212309176        2                        4.209822317216768E-29    7.921025187580877E-57
0.3025242496978876        2.231598266965439        2                        6.37450670719477E-29     1.19940045876984E-56
0.3024354623085162        2.2348636580969687       2                        9.422922999331892E-29    1.7729776887041908E-56
0.30232234764737786       2.239464765188392        2                        1.3716045060981027E-28   2.580753538164845E-56
0.3021750527603702        2.2459472003817798       2                        1.9762293420163038E-28   3.7183902822997693E-56
0.30208245647385545       2.250263961352047        2                        2.351017506664504E-28    4.423575981003627E-56