% Model:              SPAD_polygate_type3_curve.mph
% Version:            COMSOL 6.2.0.415
% Date:               Dec 6 2024, 14:50
% Dimension:          2
% Nodes:              2287
% Expressions:        2
% Description:        Ionization coefficient, holes, User-defined generation rate, electrons
% Length unit:        µm
% X                       Y                        semi.Rsrh (1/(m^3*s)) @ Vp=-7.94 semi.udg1.Gn (1/(m^3*s)) @ Vp=-7.94
0.06046807657937138       2.2111587700053916       -2.2930907482379072E14   0
0.06046678912549727       2.2118137279084715       -2.293191482056959E14    0
0.06046066453100781       2.214206545382104        -2.2935733781217166E14   0
0.06045024472705625       2.2173374218390896       -2.3623388387018594E14   0
0.060443483117083786      2.219595104815941        -2.3640940813194553E14   0
0.06043770918767163       2.2228461578904124       -2.3666990995532628E14   0
0.06043353351173874       2.2274568741934813       -2.370497753495036E14    0
0.060431618945922506      2.233995341552288        -2.376010884976312E14    0
0.060431101257075466      2.2348977915390207       -2.5517082369416038E14   0
0.06042781075053875       2.2367487716350083       -2.5569534986150303E14   0
0.06042032185608152       2.2392923458803415       -2.564503660575255E14    0
0.06040706659793325       2.2427874192545807       -2.575353047515442E14    0
0.0603858908594398        2.247589680507531        -2.590868816875247E14    0
0.060381660217285034      2.248520751609861        -3.294093392460959E14    0
0.06036564316595689       2.2524644348024245       -3.342787424508349E14    0
0.060346591924079845      2.258012561477155        -6.017326832179172E14    0
0.06034340144890709       2.259146700796068        -6.085667831248722E14    0
0.060338402064257585      2.261695995592139        -6.241304951568179E14    0
0.060334807691780255      2.265080682766618        -6.451179470270795E14    0
0.06033307880367081       2.2695746533115653       -6.733835450268521E14    0
0.06033382684212059       2.2755415958649685       -3.555042159441267E15    6.353453248811467E-126
0.06033551579590827       2.2801644375549666       -6.0192514233660544E16   4.3131295675785E-102
0.06033619177041016       2.282162212874291        -6.1793529067771336E16   1.0074878797586573E-95
0.060337152226066705      2.286374376344602        -6.5212458109888056E16   4.4446719980495875E-84
0.060337682057062296      2.291468036967686        -6.9432973236172568E16   1.6005440602722917E-72
0.06033769112554336       2.2976276676941407       -7.4678376817121088E16   2.9682606097228252E-61
0.06033752980092005       2.3006619885939323       -2.66767894974084416E17  8.910468005474351E-44
0.06033748048447923       2.3014548134525263       -4.963693660494149E21    1.4212227813403681E-25
0.0603372668900962        2.3050884180060067       -5.149251349373969E21    2.5819886280170756E-23
0.06033694341822572       2.311944634964565        -5.514735226684145E21    1.7477738148585046E-19
0.06033667046490543       2.3199164236322556       -5.967440374450382E21    1.2702541122695334E-15
0.06033665810290076       2.3203910991507497       -2.0316144361739693E22   1.259952950282378E-13
0.0603366496088718        2.3257638138044574       -2.140919175651228E22    1.6581828169801308E-11
0.060336805418464846      2.33017823331955         -2.600357775283033E22    4.2286725238694106E-5
0.06033733300193765       2.3376666214766857       -2.889570972586564E22    0.026767574391049157
0.06033788396338832       2.342763700794329        -3.039241980400925E22    0.42380261697898697
0.06033865042696919       2.348208389656422        -3.719251010929731E22    4871.340866726609
0.060339617795101316      2.3539692750427896       -4.055950551124407E22    136757.24003984377
0.06034044543344917       2.3585751375299053       -4.254370238129991E22    745192.5828550634
0.06034135630366737       2.363620816073703        -4.48480313996659E22     4359902.89320861
0.060342319519311204      2.3689326880014          -5.4992096402234245E22   1.6555959148310819E9
0.06034232742649593       2.3689761979346047       -5.64525717470867E22     3.2519654646560755E9
0.060342348241226335      2.3690908063519776       -5.652329628936979E22    3.35704258555429E9
0.060342476650512095      2.3698039228529355       -6.298172743419746E22    4.538367534633165E10
0.06034355861272575       2.376302446142823        -6.77421764473576E22     2.2632877969176044E11
0.06034454353027064       2.3831963054059107       -7.466378559822234E22    1.6452276493696113E12
0.060344666998548596      2.384136587319074        -7.547475175204274E22    2.0292200518930164E12
0.060345247141232496      2.3885704599545976       -9.199710519559758E22    6.8476607493912195E13
0.060345429001331705      2.3899569481505223       -9.3531419139953E22      8.958217972701669E13
0.06034628500976909       2.39630209510097         -1.0094791654737958E23   2.958436399646883E14
0.06034655948901539       2.398174568200904        -1.0509062187857661E23   5.399154387752543E14
0.0603472801182953        2.4023268474078794       -1.10571784699508E23     1.1254597553765704E15
0.06034817742594453       2.406606609310424        -1.3497594903365935E23   1.5623179355641034E16
0.06034858713107628       2.4083905707223456       -1.38075860191524E23     2.060199376913782E16
0.06034925783215713       2.4119006016945574       -1.467498414716548E23    4.2385893920262568E16
0.0603494693524122        2.413624341674282        -1.682331226999937E23    1.92931064604029696E17
0.060349477951152954      2.4197995593698094       -1.8257494584128892E23   4.4957187066238061E17
0.060349452576268586      2.420153374831864        -1.852994661890665E23    5.2160338745378502E17
0.060350081729998735      2.4239531088685933       -1.94986457809165E23     8.6090170959817946E17
0.0603503952015871        2.424753318373436        -2.2853201730175525E23   3.7324026542728822E18
0.06035315594168633       2.4306471441977093       -2.4799052016216454E23   7.5481131393576581E18
0.06035409360001958       2.432549142442966        -2.560299866120866E23    9.851598117203622E18
0.06035542468126479       2.436120929990122        -2.6921529228381302E23   1.4842516443912882E19
0.06035622310620687       2.439767729507725        -3.270634148909164E23    6.5774099857966735E19
0.06035630981600582       2.4409209711982203       -3.325236482824148E23    7.414706342722373E19
0.060356385785340486      2.442050366366515        -3.895853659545267E23    2.2216473114297267E20
0.06035671897700045       2.4438287023335548       -4.0001075144328777E23   2.6460963269511273E20
0.06035984904530765       2.4505527304607657       -4.422266433195747E23    5.041015288924884E20
0.060360164894923615      2.451051134807292        -4.4556116632395095E23   5.283824770097047E20
0.06036103449851891       2.4539525320342683       -4.65543173811593E23     6.931863176250369E20
0.060360255061501174      2.456898700626154        -5.579268120399446E23    2.0102138690097182E21
0.060358944682286524      2.4588384006324175       -5.745502749368983E23    2.3702644237487524E21
0.060357561290776615      2.460768605238497        -5.9209127330728903E23   2.799948797854529E21
0.0603560507981768        2.463879790152533        -6.937909255902617E23    6.509622237421599E21
0.060355555146302246      2.467210417332575        -7.518613703990293E23    9.779621559198705E21
0.06035559943423221       2.468281969314301        -8.026921125714953E23    1.348930396272697E22
0.060355651597273935      2.469770752400589        -8.222638628723231E23    1.51532905942379E22
0.06035573257938943       2.472294255914983        -8.566597676345316E23    1.8422247200233842E22
0.060355800999894724      2.4757067626387057       -9.586658040510512E23    3.1001872755152774E22
0.060355810066121375      2.476954878474662        -1.0833932946694922E24   5.325654148789608E22
0.06035577159883872       2.4787156507024624       -1.1157528255717366E24   6.0440852996122546E22
0.060355567762129254      2.481137162327502        -1.1711694464250979E24   7.422629039558619E22
0.06035555138645725       2.4812710991628397       -1.1738119309498346E24   7.493210439266569E22
0.060355298279602544      2.482930087734706        -1.2070936165271322E24   8.421276633627456E22
0.06035494989660911       2.484601782976858        -1.3439128566658916E24   1.3044930773145938E23
0.06035471366384782       2.485629773636156        -1.3677138093379822E24   1.3990475203725454E23
0.06035447396437206       2.486728261201499        -1.3940236229131241E24   1.5087083668714533E23
0.06035441794169603       2.486996029572099        -1.520058317903168E24    2.1123593965397254E23
0.060353876910467785      2.4904358809074085       -1.613389832688353E24    2.6478152696297615E23
0.06035384285330972       2.4907584806874175       -1.6224357672565055E24   2.7040598584655427E23
0.06035369967100186       2.4924831747732368       -1.671886746795466E24    3.0242175851593476E23
0.060353621079095365      2.494221098513153        -1.874716507148E24       4.5989333504180526E23
0.060353614587690084      2.4952556674354716       -1.9092486401759974E24   4.907478245543684E23
0.06035363873945936       2.496244645594675        -2.3403529304764843E23   5.221061479274686E23
0.06035365133809101       2.49660926810766         -4.753206017463196E21    7.294323492418081E23
0.06035375320884741       2.5                      -5.050606929814715E21    8.958174599823684E23
0.06034470542166155       2.501471451628197        -2.1499252759996908E19   6.132606433545685E21
0.06033996429770871       2.5025877089296746       -9.488978597199864E18    3.704442892031634E19
0.06033848874438885       2.5034345127760167       -5.3907067634901852E18   2.43042993057900128E17
0.06033883384778887       2.5038688215011953       -8.4710545650602112E16   5.761694531714306E-9
0.060344040075448996      2.504714312999822        -6.7703492225250432E16   2.3834404215559773E-18
0.060351621064281755      2.50549928013947         -1.1930820390089238E16   1.0337762137155547E-50
0.0603707408950204        2.507386964873821        -4.699239498134791E15    0
0.06038234783766116       2.5084511428372673       -4.3471970698815495E15   0
0.060389719060944896      2.5090510696248796       -4.151335450217241E15    0
0.06039470206584009       2.5093892752445477       -4.042646863473485E15    0
0.06039570539353793       2.509450354199012        -4.023241916674387E15    0
0.06041958301610598       2.510841994539691        -3.583925121378288E15    0
0.06043717500193167       2.5118422147671247       -3.5305171740512915E15   0
0.06045024807977357       2.512561108909725        -3.492149679754491E15    0
0.06046007205719498       2.5130778050441114       -3.4645867693654835E15   0
0.06046755958869615       2.5134491750333687       -3.444785349020866E15    0
0.060473366631512156      2.513716094492699        -3.430558935034454E15    0
0.060480696403613324      2.5140244607925504       -3.3028314260592115E15   0
0.06048269314140022       2.5141043039850204       -3.302208776180472E15    0
0.06049283460227724       2.5145025447727014       -3.2352758640412425E15   0
0.06053556257898063       2.5162278676963465       -3.211673547833677E15    0
0.06056005058017346       2.517281378194352        -3.2103752542141325E15   0
0.06057043342332896       2.517765756814889        -3.2097783937495385E15   0
0.18218498140990838       2.2103394005500503       -2.2693906027426894E14   0
0.1821827515380977        2.210369586385337        -2.2693938788101816E14   0
0.18216390932782683       2.2106238666873237       -2.2694214781468934E14   0
0.1821447870119005        2.210880521864975        -2.2694493393580375E14   0
0.1819236846525382        2.213761924843233        -2.2697623807501984E14   0
0.18190084352725208       2.214105446213472        -2.326714421020402E14    0
0.18186933693996865       2.2149976560961173       -2.32704056242165E14     0
0.18186730891188058       2.21623588318849         -2.3275037359833166E14   0
0.1819059301392369        2.2179539476169583       -2.3281767187936922E14   0
0.18200069296278043       2.2203374257107464       -2.3291679515525022E14   0
0.18217308279675504       2.2236436671928153       -2.3306330672785497E14   0
0.18239960368632563       2.227819753484593        -2.4363278885805512E14   0
0.18296161754335988       2.2397203780673043       -2.4559699440466553E14   0
0.18297272926006794       2.240036028643363        -2.724567658889848E14    0
0.18298587517962012       2.2413548743186262       -2.7329458058612106E14   0
0.18294384947253772       2.2431602958966534       -2.7445626176884094E14   0
0.18282618090419855       2.245631359911326        -2.7607915320515606E14   0
0.18260486422402705       2.2490130305528115       -2.783517486835781E14    0
0.18224158759741516       2.2536404204327996       -2.8152916812463944E14   0
0.18168393971459196       2.259971965788738        -4.296251044611931E14    0
0.18131975185572075       2.2641109253068437       -1.8045047819886932E15   0
0.18129574417180935       2.2644040884988246       -1.81020336920222E15     0
0.1811257788764535        2.26681091842508         -1.8584513908813322E15   3.2213015284705122E-273
0.18095157559814248       2.270552797113536        -6.774558744500892E15    3.539175938640272E-127
0.18081312076356398       2.2776302082751023       -7.42058858690821E15     5.713400876138235E-101
0.18084108504789237       2.288223926986031        -2.19858987107667168E17  1.0010400108304193E-72
0.1808475490040261        2.2887858728356734       -2.21359572651726336E17  1.401008505292743E-71
0.18088450339381934       2.293336152144545        -2.33666221584325696E17  3.89115115089405E-63
0.18089837734430692       2.298643488412132        -2.48398933438731616E17  7.511888078482491E-55
0.18088535539346207       2.3048339083608367       -8.52272202783053E19     3.02247192644536E-28
0.18086875244777736       2.308892485555634        -8.87510502182736E19     1.4581470246234447E-25
0.18086022109084882       2.311334246062227        -1.8072553383164725E22   7.199712717441462E-18
0.1808453665940577        2.3180783579686355       -1.931492893923284E22    9.300626922797054E-15
0.18084145918592992       2.325783059982256        -2.083062079541417E22    1.2608464638083822E-11
0.1808462375426529        2.331274865315231        -2.482082878890081E22    1.767550492429165E-6
0.1808571225790899        2.33639845159598         -2.7171248737036827E22   7.00358297336416E-4
0.18087848119713532       2.3425258175430823       -2.8864468813288693E22   0.025175534447257803
0.18093127356562083       2.352286984866042        -3.817919969875826E22    13849.81312218051
0.18096199398431498       2.357625709650057        -4.780981623482285E22    3.239440353330545E7
0.18098656772998936       2.36395542996175         -5.115019446762824E22    2.3252838611809665E8
0.18100141389748134       2.37216000656817         -5.82593526062075E22     7.152141143908102E9
0.18100489371059963       2.376269916020752        -6.095952662472985E22    2.1296229416246185E10
0.1810112569651297        2.3817903700602727       -7.730630970270251E22    3.209710881159989E12
0.18102127452344755       2.3883844038820983       -8.346448300371873E22    1.3061618065536412E13
0.18102631959122178       2.392133369424516        -9.061603847012015E22    5.3390825416410266E13
0.18102887026596318       2.397045241533498        -9.609136342743551E22    1.378505283446419E14
0.1810269595183932        2.402142756490278        -1.1636271436042962E23   2.288964852697655E15
0.18102638180697078       2.4028375026145126       -1.1736934759219027E23   2.573522736374546E15
0.1810251653242114        2.404664801086964        -1.2819725229648088E23   8.20387181870582E15
0.1810254864026364        2.4088526083662636       -1.485221979444161E23    4.8691677744696392E16
0.18103709120476655       2.4163202087983473       -1.6367447694320683E23   1.43783319139238224E17
0.1810438670932408        2.419893210794134        -1.792992362218888E23    3.7420198318760179E17
0.1810460617044053        2.421717424242797        -1.9808686961392398E23   1.00224030386196685E18
0.18104925183953366       2.4254540181070974       -2.083723971377161E23    1.61679769013070464E18
0.18105076270291132       2.429279275607355        -2.1954232476357603E23   2.6090916222044672E18
0.18105095581205438       2.4304191040849674       -2.4397011785874392E23   6.5732642205880596E18
0.18105096806009474       2.430489581614286        -2.52937659007427E23     8.9061886749431235E18
0.1810518935229526        2.433500770614984        -2.9039295895954674E23   2.697415176131045E19
0.18105243496851547       2.434655257042005        -2.952178662763199E23    3.062198142608734E19
0.18105562456506638       2.4397044456316404       -3.181907349297935E23    5.378153270620952E19
0.18105615071720316       2.4403984393565548       -3.213964909497578E23    5.789486647816544E19
0.18105865374625604       2.443835418503267        -3.939004732896049E23    2.390365101475816E20
0.18106174378683315       2.4494711798828033       -4.282331263500898E23    4.113873497337835E20
0.18106219121715847       2.4509394816723358       -4.377853499962303E23    4.7309998831565754E20
0.18106221074944007       2.4545469302276093       -5.3546061384445836E23   1.590430361203664E21
0.18106043536014924       2.459506119344288        -5.81534580517418E23     2.535012774682785E21
0.18106021811135442       2.4599314636350837       -5.8540116700113614E23   2.6297912177619407E21
0.1810586498039624        2.462987519889886        -6.894241992438013E23    6.301180786312641E21
0.18105816236228478       2.4651136843949293       -7.131534708271966E23    7.494537373424688E21
0.18105981382121167       2.4684555388803204       -7.613431362008454E23    1.0407907187364603E22
0.18106068573409498       2.4695238825232892       -7.745352953852797E23    1.1329478863976948E22
0.18106159897444843       2.4713138256563805       -7.972111722391257E23    1.3047665453604295E22
0.1810618348829411        2.4731187109954873       -8.208255924349317E23    1.502629644047078E22
0.1810617895689408        2.473489992641219        -9.141697154706248E23    2.4951351414782467E22
0.18106167191521622       2.4742126210317954       -9.487553928967482E23    2.9574499843132904E22
0.1810615172938428        2.4763879255629964       -9.739235823731846E23    3.32918941230161E22
0.18106153562606092       2.477173595403132        -9.866422235811666E23    3.528834193393453E22
0.18106182497701145       2.4795005922620854       -1.1038722394176064E24   5.773110377036294E22
0.1810618750371553        2.47978277492696         -1.1090942761919272E24   5.891174286517261E22
0.18106195928140414       2.480312821145263        -1.1429822991626078E24   6.697488768654847E22
0.18106216982603127       2.481794082573402        -1.2679273912608594E24   1.0311488486582047E23
0.18106243619816398       2.4855768352817673       -1.3522320640811196E24   1.3370466768070386E23
0.1810624382107364        2.4856842992300163       -1.3547952594170362E24   1.347183649607324E23
0.18106245593223239       2.487403840378421        -1.395226350996269E24    1.5138521943409467E23
0.18106244643855024       2.4891367933201494       -1.570617105832645E24    2.3927227738904598E23
0.18106239377565228       2.4903858208090446       -1.605017294281999E24    2.596568444488058E23
0.18106227934433583       2.491783316887316        -1.6444395490299855E24   2.843657076646429E23
0.1810622647601331        2.491941222184762        -1.7982552854674228E24   3.958491756743086E23
0.18106199293858793       2.4952009104370507       -1.9044727657695135E24   4.8624023375709076E23
0.18106187585204547       2.4964700809797713       -2.482368315824957E23    5.264412403604101E23
0.18106164585395468       2.4981979233913125       -5.464536319199922E21    8.086558655554632E23
0.1810612596265422        2.5                      -5.643934333720477E21    9.016037585208066E23
0.18105259883560207       2.5014711884103678       -2.3785406480341275E19   1.0059649283687189E22
0.18105047014782286       2.501930408509004        -1.6844937841096636E19   1.5911336845187484E21
0.18104762470290797       2.5035976407432          -7.6895481512290352E16   1.067951249126976E-12
0.1810520265048432        2.5045984042152387       -5.461060277731496E16    7.478502344036174E-32
0.18105301049376893       2.504716502846125        -5.2466925649158008E16   5.071843946724222E-35
0.18106636467976178       2.506137864107294        -1.082379684177357E16    7.765462835189683E-64
0.18107666043526216       2.507163313601667        -9.58842886042815E15     8.592116934797139E-85
0.18107791071290302       2.507282836931869        -4.837380806488114E15    0
0.1810902582183733        2.508374887647483        -4.510335046737053E15    0
0.181098409961513         2.5089928376844286       -4.343607315265178E15    0
0.18110418661107028       2.5093425084033343       -4.259905802082137E15    0
0.1811057268436719        2.509423193716943        -4.242105692051445E15    0
0.18113486997708517       2.510810796152546        -3.5982985349058605E15   0
0.18115796171816262       2.5118084670387235       -3.5454293450301555E15   0
0.18115971965195327       2.511880357566606        -3.541642536143823E15    0
0.1811875626456068        2.512982856661989        -3.3052202935881465E15   0
0.18120429996123405       2.5136055637071513       -3.296115827032973E15    0
0.1812147640969207        2.513957261724846        -3.291568484787269E15    0
0.18121972135971845       2.514106721625937        -3.2898290578710555E15   0
0.18126207732528918       2.5153115338704017       -3.235151115352385E15    0
0.18129342235379708       2.516193284941763        -3.2146394061560225E15   0
0.18133089715031164       2.5172455505335756       -3.2133420811260485E15   0
0.18135329045862458       2.517880232181688        -3.212585955569566E15    0
0.3057647309820742        2.2030901506057097       -2.2578996911580416E14   0
0.3054767707166488        2.205251075708711        -2.258121419374047E14    0
0.3049807571709           2.208833185303937        -2.2584926569261516E14   0
0.30433221073259814       2.213356152788431        -2.258965738909201E14    0
0.30349114167495495       2.219067135825166        -2.2595673314715462E14   0
0.30333705674182204       2.2201508122377893       -2.3237523905667284E14   0
0.3028103661982489        2.2247904034680266       -2.3257051808002503E14   0
0.30278834739740723       2.225060004413779        -2.5180144700177038E14   0
0.3027489769790751        2.225645392466269        -2.52019178101539E14     0
0.30270505338659215       2.2264717323420875       -2.5232626342621306E14   0
0.30265479788192245       2.227637458359582        -2.5275921904015584E14   0
0.3025957057378631        2.229281212309176        -2.5336950020395853E14   0
0.3025242496978876        2.231598266965439        -2.5422960124023216E14   0
0.3024354623085162        2.2348636580969687       -2.5544164285019722E14   0
0.30232234764737786       2.2394647651883917       -2.5714946992430578E14   0
0.3021750527603702        2.2459472003817798       -2.739923833464347E14    0
0.30208245647385545       2.250263961352047        -2.764490485068653E14    0
0.3018470254140147        2.261881986905292        -4.6763759079000494E14   0
0.30180718183828975       2.2639849674538146       -5.211040079487528E15    0
0.30178589713922255       2.265278975136351        -5.315015841523514E15    0
0.3017515951145663        2.2682132389883147       -5.557994668231421E15    4.610223318436042E-261
0.3017253143154448        2.2721445600272014       -5.894700046882877E15    1.4461206250659583E-214
0.30170782207350116       2.2783859076810264       -3.118431468083214E16    1.2519438510917918E-73
0.30171220534655224       2.289227359262438        -3.5355389756392704E16   4.4659196034816375E-55
0.30175909665303186       2.305363293833276        -4.2064284054337992E16   6.851176839410672E-37
0.3017646541629336        2.3068469421885434       -9.942241784053438E20    1.7920840268274863E-28
0.30178415383476337       2.3142912164633076       -1.070060645540112E21    1.0089787526883084E-23
0.30178459918514955       2.31455934861038         -1.988351484750326E22    1.3217243102707026E-14
0.30178954332518626       2.322229478055643        -2.1435568396719155E22   1.6605387180144584E-11
0.30177903078028945       2.3310350803542086       -2.3362129070556338E22   2.1390676217483566E-8
0.30175077272591866       2.341144202937407        -2.5791011660331942E22   2.6442706649458413E-5
0.301740067642358         2.344040745773923        -3.3255749762641253E22   37.224864597008306
0.30173940686150574       2.344214088314257        -3.3313699078600017E22   40.379986121046315
0.3017245105843261        2.349608828587743        -4.059818205395008E22    141596.76894691633
0.3017211374256599        2.3520746859146255       -4.1647898239917365E22   354226.51703120733
0.30172672552755303       2.363473586731153        -4.719254421978075E22    2.179931917052086E7
0.30172726699461044       2.363747099758897        -4.732943335346898E22    2.38231193500542E7
0.30173751226649864       2.369176164634694        -5.014524386895206E22    1.3224476255398484E8
0.30174733659033165       2.374901944618898        -5.333036061202041E22    7.338367940915159E8
0.30175581272959556       2.380316671441652        -7.061165147190307E22    5.3879111399699066E11
0.30175664534839874       2.3808808383134763       -7.106624434532333E22    6.143599192680942E11
0.3017618855762534        2.384915898517954        -8.51618144190734E22     1.8604551239496277E13
0.3017635578917487        2.3864385394580103       -8.670217140594684E22    2.5365758308976742E13
0.30176930797437396       2.3930757590911593       -9.376038468418348E22    9.318325516355095E13
0.3017703475820399        2.3949442699006633       -9.588245963043414E22    1.3318938065914342E14
0.3017710439455522        2.3992365623424536       -1.0097428826412176E23   2.9701966951234325E14
0.301769400662252         2.4036657965494514       -1.0656407355240549E23   6.620828679213814E14
0.30176793073952174       2.405665488071697        -1.2682201390912734E23   7.147773524336686E15
0.3017666569976086        2.4073668917801356       -1.5520581211071118E23   8.0212723775921568E16
0.30176529889693665       2.410220664205293        -1.6108932566359375E23   1.20967177958015072E17
0.3017676234466117        2.4193681147466055       -1.8176173455308196E23   4.2976609547958758E17
0.30176875384199714       2.4209140965921105       -1.8584065500851662E23   5.3700509385531757E17
0.30177066085573834       2.424754178630624        -1.9566854494010612E23   8.9047400473150118E17
0.30177132767525794       2.4286888518900827       -2.0636380818575022E23   1.4770595046864599E18
0.3017710689499156        2.430733822681965        -2.4558988268971487E23   6.9528300031784509E18
0.3017710108699807        2.4309538258597216       -2.5087661969369097E23   8.3181080741891185E18
0.30176989817780964       2.434489153805797        -2.6362315638522817E23   1.2522645949676593E19
0.3017696287163792        2.435250198775145        -3.0734359472806767E23   4.155324926630499E19
0.30176785657344635       2.441620060522608        -3.368351982819095E23    8.133617894250666E19
0.3017677301307867        2.4422521473925074       -3.399482314787849E23    8.686070765387124E19
0.3017672348579004        2.446224474442779        -4.1864572200190146E23   3.558679799861873E20
0.3017694566434423        2.4523869050123612       -4.621816664346661E23    6.630382635632853E20
0.30177066554195664       2.454002616321116        -4.736503278235405E23    7.70190660278745E20
0.30177263486414885       2.4570046676500366       -5.598885661808309E23    2.0504299946800817E21
0.30177305399680215       2.4577437052686535       -5.663453000325695E23    2.1870363323822747E21
0.3017744705077224        2.4612871978097663       -6.135448757900743E23    3.4007935837785156E21
0.30177479511558186       2.4626361522970273       -6.266712255019968E23    3.8123187676095494E21
0.30177520532309887       2.464848142510634        -6.488795159957576E23    4.590281259597382E21
0.30177546881032935       2.4670856043148337       -7.370900458350498E23    8.855765162494513E21
0.3017755057001741        2.4675724324365294       -7.428444377277287E23    9.207844773267315E21
0.3017755381215352        2.468049076615721        -7.485408955076324E23    9.566183533477395E21
0.30177572588866713       2.4699365912082465       -8.659272268850782E23    1.9381714529317166E22
0.3017766812676565        2.4746092988749053       -9.348317040446224E23    2.7647271499518462E22
0.301776894596026         2.476139867085553        -9.586714828797523E23    3.1002699322410496E22
0.30177654207966853       2.4781259913300113       -9.906159643581044E23    3.5928699080983133E22
0.3017754772132804        2.4801308209195496       -1.0240600097750235E24   4.163970430695329E22
0.30177546136234873       2.4801531679067597       -1.1248736570387165E24   6.257889610251638E22
0.301775441625015         2.480180989395182        -1.2280398932471101E24   9.04329140025165E22
0.30177448344981245       2.481720217262684        -1.260461223327239E24    1.0065605422922295E23
0.3017732181930862        2.485518792605493        -1.344580648955845E24    1.3070866378762924E23
0.3017730359025945        2.4868392280751768       -1.3752655887127075E24   1.4299668564070683E23
0.30177275285393035       2.488606067335184        -1.4175198002466324E24   1.611294061859629E23
0.3017724228861511        2.4903867343455297       -1.5911419691005654E24   2.5130537649253496E23
0.3017724125521707        2.4904388660882093       -1.592581833370768E24    2.5216385399458297E23
0.30177240256875015       2.490488705807926        -1.593959652856539E24    2.5300231352868186E23
0.3017721013675072        2.4918006852517136       -1.7659015599024772E24   3.7074142627168074E23
0.30177096353399474       2.4952637419150925       -1.876738548585083E24    4.616688285204113E23
0.3017704152725569        2.496575917813845        -2.2991406757543683E23   5.012628387307469E23