% Model:              SPAD_guard ring_polygate_type3_curve_E(-10V).mph
% Version:            COMSOL 6.2.0.415
% Date:               Nov 27 2024, 20:44
% Dimension:          1
% Nodes:              561
% Expressions:        1
% Description:        Global
% Vp (V)                  Terminal current
0                         4.775288288441268E-15
-0.02                     7.516045931500135E-15
-0.04                     8.871763674812503E-15
-0.06                     1.482556605310435E-14
-0.08                     1.6665406718190833E-14
-0.1                      2.151218180143606E-14
-0.12                     2.5113413861636256E-14
-0.14                     3.3182986665623334E-14
-0.16                     4.1110210001009554E-14
-0.18                     4.923194816946879E-14
-0.2                      5.953625412264214E-14
-0.22                     7.11712156296135E-14
-0.24                     8.311684026074553E-14
-0.26                     9.837616403454043E-14
-0.28                     1.161207038234567E-13
-0.3                      1.342522569794538E-13
-0.32                     1.5643834866583193E-13
-0.34                     1.7804452807916136E-13
-0.36                     2.0400805815415437E-13
-0.38                     2.329813682941971E-13
-0.4                      8.89756358095558E-13
-0.42                     1.0138820319833359E-12
-0.44                     1.1426830673004872E-12
-0.46                     1.2935259436269524E-12
-0.48                     1.45276805374862E-12
-0.5                      1.624228972958763E-12
-0.52                     1.8096660589790302E-12
-0.54                     2.011563909755189E-12
-0.56                     2.2222824677269304E-12
-0.58                     2.4530741579242167E-12
-0.6                      2.6960373310704656E-12
-0.62                     2.957583834442188E-12
-0.64                     3.2348078272615606E-12
-0.66                     3.523966334624265E-12
-0.68                     3.838797250686035E-12
-0.7000000000000001       4.154469070438922E-12
-0.72                     4.495534059918124E-12
-0.74                     4.8527659432785664E-12
-0.76                     5.232009484433266E-12
-0.78                     5.632566134814315E-12
-0.8                      6.124545435203147E-12
-0.8200000000000001       6.493638039702435E-12
-0.84                     7.046813585408935E-12
-0.86                     7.35569411281717E-12
-0.88                     7.866357888936035E-12
-0.9                      8.301507183058725E-12
-0.92                     8.909068160616584E-12
-0.9400000000000001       9.37836827924657E-12
-0.96                     9.924583235345776E-12
-0.98                     1.0455472694277664E-11
-1                        1.0934661436962195E-11
-1.02                     1.1501930600979726E-11
-1.04                     1.2071482194005913E-11
-1.06                     1.274355069675573E-11
-1.08                     1.3250461823470973E-11
-1.1                      1.3857003641305374E-11
-1.12                     1.4474309970355317E-11
-1.1400000000000001       1.5088182296457648E-11
-1.16                     1.5718740549776283E-11
-1.18                     1.634481416617507E-11
-1.2                      1.699260625938195E-11
-1.22                     1.7632173029292174E-11
-1.24                     1.8278973862485775E-11
-1.26                     1.8925133762338862E-11
-1.28                     1.957874206900228E-11
-1.3                      2.0232669629454254E-11
-1.32                     2.087833933943929E-11
-1.34                     2.1545694481124642E-11
-1.36                     2.218551341215762E-11
-1.3800000000000001       2.2837521033074564E-11
-1.4000000000000001       2.349582959974716E-11
-1.42                     2.4144931393852397E-11
-1.44                     2.477515316581097E-11
-1.46                     2.545926673013507E-11
-1.48                     2.605964790385123E-11
-1.5                      2.66852663405764E-11
-1.52                     2.73123538534212E-11
-1.54                     2.7961563228155364E-11
-1.56                     2.8569730322273984E-11
-1.58                     2.917809450578894E-11
-1.6                      2.973786164780243E-11
-1.62                     3.0381576192541055E-11
-1.6400000000000001       3.0908797160635835E-11
-1.6600000000000001       3.161243356164443E-11
-1.68                     3.2232274425669375E-11
-1.7                      3.284575858899746E-11
-1.72                     3.373328727099883E-11
-1.74                     3.4237290697351516E-11
-1.76                     3.45682809437436E-11
-1.78                     3.5026568519956185E-11
-1.8                      3.536964489846898E-11
-1.82                     3.609250762528424E-11
-1.84                     3.6373703814344344E-11
-1.86                     3.6768931978200014E-11
-1.8800000000000001       3.7242040107708177E-11
-1.9000000000000001       3.778123381896152E-11
-1.92                     3.874383784287339E-11
-1.94                     3.899980865966564E-11
-1.96                     3.896325667857049E-11
-1.98                     4.1884988806940407E-11
-2                        3.966977188752869E-11
-2.02                     4.0109505275343555E-11
-2.04                     4.0696488733026845E-11
-2.06                     4.091199792560497E-11
-2.08                     4.2096571201338714E-11
-2.1                      4.147109162001168E-11
-2.12                     4.222658121162545E-11
-2.14                     4.212352231652822E-11
-2.16                     4.254584258950142E-11
-2.18                     4.294539063714091E-11
-2.2                      4.3035383276079405E-11
-2.22                     4.3369330831545375E-11
-2.24                     4.359238266354443E-11
-2.2600000000000002       4.386500638992084E-11
-2.2800000000000002       4.4120272833083064E-11
-2.3000000000000003       4.437497771848799E-11
-2.32                     4.4623904853236364E-11
-2.34                     4.4878559951431005E-11
-2.36                     4.5344736130101463E-11
-2.38                     4.539114368208996E-11
-2.4                      4.5668275493809224E-11
-2.42                     4.596108196294133E-11
-2.44                     4.627069128667247E-11
-2.46                     4.660353636681169E-11
-2.48                     4.694629924433886E-11
-2.5                      4.740640218641789E-11
-2.52                     4.7633990359289994E-11
-2.54                     4.7944590593229654E-11
-2.56                     4.8211779056497787E-11
-2.58                     4.83985364334326E-11
-2.6                      4.862420140893206E-11
-2.62                     4.851507617887117E-11
-2.64                     4.8437212732353E-11
-2.66                     4.828133541787222E-11
-2.68                     4.80801123959919E-11
-2.7                      4.78096799608701E-11
-2.72                     4.7550519951161754E-11
-2.74                     4.7305282874059283E-11
-2.7600000000000002       4.7082139918464214E-11
-2.7800000000000002       4.7200003827399025E-11
-2.8000000000000003       4.673874738196902E-11
-2.82                     4.6611452544940015E-11
-2.84                     4.6495781591464493E-11
-2.86                     4.639447379114053E-11
-2.88                     4.6343785282315786E-11
-2.9                      4.6246556567494004E-11
-2.92                     4.6220173111623926E-11
-2.94                     4.596546406819382E-11
-2.96                     4.602587712462377E-11
-2.98                     4.571070232909044E-11
-3                        4.5586053907968923E-11
-3.02                     4.561664143169291E-11
-3.04                     4.5813487235035795E-11
-3.06                     4.521949460834435E-11
-3.08                     4.5020793901271544E-11
-3.1                      4.484487422373848E-11
-3.12                     4.458161113023829E-11
-3.14                     4.443964954224383E-11
-3.16                     4.424445861944327E-11
-3.18                     4.4084630488617515E-11
-3.2                      4.390028363100218E-11
-3.22                     4.369117590675771E-11
-3.24                     4.3810722365614934E-11
-3.2600000000000002       5.956793380219453E-11
-3.2800000000000002       4.334983998324212E-11
-3.3000000000000003       4.308465950872285E-11
-3.3200000000000003       4.288105689413856E-11
-3.34                     4.249405115156525E-11
-3.36                     4.2322840904341E-11
-3.38                     4.213879267679721E-11
-3.4                      4.194271937247523E-11
-3.42                     4.187824584815192E-11
-3.44                     4.152659165967614E-11
-3.46                     4.141980756767854E-11
-3.48                     4.1179276117124615E-11
-3.5                      4.093088400470557E-11
-3.52                     4.091919520140042E-11
-3.54                     4.063967531324738E-11
-3.56                     4.034353052988414E-11
-3.58                     4.027643658837675E-11
-3.6                      4.018223356962056E-11
-3.62                     3.9951691214344497E-11
-3.64                     4.037874672967179E-11
-3.66                     3.978633390945401E-11
-3.68                     4.094683935230014E-11
-3.7                      3.9457875833905106E-11
-3.72                     4.001972323050759E-11
-3.74                     4.2068453673413936E-11
-3.7600000000000002       3.895229690992544E-11
-3.7800000000000002       3.902384568805938E-11
-3.8000000000000003       3.843812337498833E-11
-3.8200000000000003       3.796656995380511E-11
-3.84                     3.783795776277625E-11
-3.86                     3.766811380325072E-11
-3.88                     3.741904866421681E-11
-3.9                      3.6994361982412244E-11
-3.92                     3.6699035190869476E-11
-3.94                     3.655962978739342E-11
-3.96                     3.673587540141126E-11
-3.98                     3.638568095175102E-11
-4                        3.63449474578699E-11
-4.0200000000000005       3.579708956014452E-11
-4.04                     3.5465750406941813E-11
-4.0600000000000005       3.5271598475165867E-11
-4.08                     3.507907220157681E-11
-4.1                      3.479695450392294E-11
-4.12                     3.459925335604259E-11
-4.14                     3.452048475145248E-11
-4.16                     3.413699075051553E-11
-4.18                     3.40198608934916E-11
-4.2                      3.3862922599103543E-11
-4.22                     3.3523147175824934E-11
-4.24                     3.333863497032741E-11
-4.26                     3.3106163539465266E-11
-4.28                     3.282693629498834E-11
-4.3                      3.264094119336029E-11
-4.32                     3.238783068052705E-11
-4.34                     3.234929380586021E-11
-4.36                     3.200583590847461E-11
-4.38                     3.177547962529028E-11
-4.4                      3.1508867789944794E-11
-4.42                     8.391041827416063E-11
-4.44                     3.445045045828552E-11
-4.46                     3.0931611614287584E-11
-4.48                     3.0686823012381195E-11
-4.5                      3.0474123407561796E-11
-4.5200000000000005       3.028144684666722E-11
-4.54                     2.997891733968342E-11
-4.5600000000000005       2.987530108563739E-11
-4.58                     2.9547437648227846E-11
-4.6000000000000005       2.938322753583296E-11
-4.62                     2.911839180378278E-11
-4.64                     2.8903549969408863E-11
-4.66                     2.8688431301582825E-11
-4.68                     2.8475868515821565E-11
-4.7                      2.8263372234395555E-11
-4.72                     2.812141856123908E-11
-4.74                     2.7842789726474532E-11
-4.76                     2.7633643752531648E-11
-4.78                     2.7430191481229837E-11
-4.8                      2.7228140160597224E-11
-4.82                     2.7148254375602752E-11
-4.84                     2.6859732765084757E-11
-4.86                     2.6672709689921987E-11
-4.88                     2.641866475929266E-11
-4.9                      2.6261138154955013E-11
-4.92                     2.6026528003680048E-11
-4.94                     2.583391328296027E-11
-4.96                     2.5975219491507007E-11
-4.98                     2.5464968620467926E-11
-5                        2.5288672548389707E-11
-5.0200000000000005       2.5088440454750444E-11
-5.04                     2.4912517929509155E-11
-5.0600000000000005       2.4899828508428803E-11
-5.08                     2.4548008536540386E-11
-5.1000000000000005       2.4386060821466843E-11
-5.12                     2.42864415374595E-11
-5.14                     2.4021006806939565E-11
-5.16                     2.402520155971738E-11
-5.18                     2.3792146232165675E-11
-5.2                      2.351379769703118E-11
-5.22                     2.3346969684681928E-11
-5.24                     2.3222053744654988E-11
-5.26                     2.3067552193792636E-11
-5.28                     2.288328210611512E-11
-5.3                      2.2761411379450547E-11
-5.32                     2.2602203925116125E-11
-5.34                     2.2490575680316938E-11
-5.36                     2.2333358649034913E-11
-5.38                     2.2117613961163873E-11
-5.4                      2.198498473608279E-11
-5.42                     2.1836249163048774E-11
-5.44                     2.1778632375853176E-11
-5.46                     2.1592784350776154E-11
-5.48                     2.143188606005224E-11
-5.5                      2.1258135677506057E-11
-5.5200000000000005       2.297132467936906E-11
-5.54                     2.130294210400563E-11
-5.5600000000000005       2.088650969891027E-11
-5.58                     2.0692507992040644E-11
-5.6000000000000005       2.0620442767241514E-11
-5.62                     2.0409816502552115E-11
-5.64                     2.031017696459734E-11
-5.66                     2.0192666427491527E-11
-5.68                     1.998724059473765E-11
-5.7                      1.9838359581319162E-11
-5.72                     1.9694101465273967E-11
-5.74                     1.9644963012531733E-11
-5.76                     1.9460213475340777E-11
-5.78                     1.930834853840484E-11
-5.8                      1.9238425078450163E-11
-5.82                     1.909368431257275E-11
-5.84                     1.9143228371134667E-11
-5.86                     2.3677872128459264E-11
-5.88                     1.9056830874344256E-11
-5.9                      3.518229971284279E-11
-5.92                     1.9390932886532856E-11
-5.94                     1.834334238213639E-11
-5.96                     1.863638452726067E-11
-5.98                     1.8022732681538256E-11
-6                        2.4599257983402022E-11
-6.0200000000000005       1.8003221742682207E-11
-6.04                     1.7538358336529508E-11
-6.0600000000000005       2.4887764952776853E-11
-6.08                     1.7576392826806718E-11
-6.1000000000000005       1.683045492583984E-11
-6.12                     1.661131957039144E-11
-6.140000000000001        1.642042738118039E-11
-6.16                     1.6247651953739702E-11
-6.18                     1.6120644097147686E-11
-6.2                      1.599566419333509E-11
-6.22                     1.5790400737750113E-11
-6.24                     1.5522018391313483E-11
-6.26                     1.5361159635091376E-11
-6.28                     1.518908639532691E-11
-6.3                      1.502689877738481E-11
-6.32                     1.4866575000683784E-11
-6.34                     1.4698021262191413E-11
-6.36                     1.455496753247032E-11
-6.38                     1.4387192457188485E-11
-6.4                      1.4237672129278191E-11
-6.42                     1.4102543539330402E-11
-6.44                     1.3953428886464882E-11
-6.46                     1.3775183367539088E-11
-6.48                     1.3977097332329593E-11
-6.5                      1.3511457769684265E-11
-6.5200000000000005       1.3336016470005837E-11
-6.54                     1.3196869224993216E-11
-6.5600000000000005       1.3058823677466405E-11
-6.58                     1.2921912895326967E-11
-6.6000000000000005       1.282583735456548E-11
-6.62                     1.2686963118025873E-11
-6.640000000000001        1.2542225326368997E-11
-6.66                     1.2481274405625582E-11
-6.68                     1.230417304712184E-11
-6.7                      1.2176949465511987E-11
-6.72                     1.2060488886006058E-11
-6.74                     1.193736057819024E-11
-6.76                     1.1818071671443282E-11
-6.78                     1.1775764480740461E-11
-6.8                      1.1692443977214356E-11
-6.82                     1.2167781646732558E-11
-6.84                     1.1552001755488856E-11
-6.86                     1.1297489374189826E-11
-6.88                     1.1198855184814989E-11
-6.9                      1.1069084963192946E-11
-6.92                     1.0964731501194579E-11
-6.94                     1.0867008922012955E-11
-6.96                     1.0771802420647396E-11
-6.98                     1.0697505345933059E-11
-7                        1.0577196134237701E-11
-7.0200000000000005       1.0474835050326492E-11
-7.04                     1.0379976314298705E-11
-7.0600000000000005       1.0315136575714094E-11
-7.08                     1.0201788639246262E-11
-7.1000000000000005       1.0150970518796503E-11
-7.12                     1.0024215153140695E-11
-7.140000000000001        9.934925445745406E-12
-7.16                     9.842822640066648E-12
-7.18                     9.836744302675903E-12
-7.2                      9.725913232115502E-12
-7.22                     9.598234683066724E-12
-7.24                     9.54466475073734E-12
-7.26                     9.462620270655331E-12
-7.28                     9.35110390739743E-12
-7.3                      9.303762354094975E-12
-7.32                     9.200553485868657E-12
-7.34                     9.121791608738469E-12
-7.36                     9.051460587998831E-12
-7.38                     8.989772108244322E-12
-7.4                      8.986173293784898E-12
-7.42                     8.886868633942106E-12
-7.44                     8.930053903679038E-12
-7.46                     8.81143521686357E-12
-7.48                     8.746993920592114E-12
-7.5                      8.71411820444547E-12
-7.5200000000000005       8.676611907069462E-12
-7.54                     8.660330143443738E-12
-7.5600000000000005       8.643217178485644E-12
-7.58                     8.633468893741625E-12
-7.6000000000000005       8.640525371935398E-12
-7.62                     8.674105904352963E-12
-7.640000000000001        8.692464975624247E-12
-7.66                     8.689390131755675E-12
-7.68                     8.728937224664353E-12
-7.7                      8.778024314996262E-12
-7.72                     8.891617648962589E-12
-7.74                     9.317171449797115E-12
-7.76                     1.0863379580949334E-11
-7.78                     1.5729070782977838E-11
-7.8                      2.453149331853771E-11
-7.82                     3.753849932400504E-11
-7.84                     4.876455200398353E-11
-7.86                     5.111931187171095E-11
-7.88                     4.335423961025455E-11
-7.9                      3.103501254256939E-11
-7.92                     2.054087765574223E-11
-7.94                     1.4329538997479751E-11
-7.96                     1.1590363104060916E-11
-7.98                     1.0692684205931385E-11
-8                        1.1066684852869449E-11
-8.02                     1.069452890519731E-11
-8.040000000000001        6.453982377308788E-11
-8.06                     2.6094713497948237E-11
-8.08                     1.2802881823754792E-11
-8.1                      1.1188821923359901E-11
-8.120000000000001        1.1057611005400878E-11
-8.14                     1.1134034681451946E-11
-8.16                     1.3158241513987022E-11
-8.18                     1.7527979323590567E-11
-8.2                      1.2762111288610037E-11
-8.22                     1.1295821285922307E-11
-8.24                     2.8857236923185855E-11
-8.26                     1.626318409886502E-11
-8.28                     1.152967279818641E-11
-8.3                      1.7454013487056028E-11
-8.32                     1.2738677025186801E-11
-8.34                     1.073658291416554E-11
-8.36                     1.0387902817804979E-11
-8.38                     1.0275733302266609E-11
-8.4                      9.875760742304131E-12
-8.42                     9.653732473405413E-12
-8.44                     1.3827396167252574E-11
-8.46                     1.0611098207965488E-11
-8.48                     9.169153901655872E-12
-8.5                      8.746814620882832E-12
-8.52                     8.471631385019736E-12
-8.540000000000001        8.253225998260632E-12
-8.56                     7.999561154158158E-12
-8.58                     7.769397408302603E-12
-8.6                      7.57223226279187E-12
-8.620000000000001        7.394086022235397E-12
-8.64                     7.1905632545254375E-12
-8.66                     7.034009427859438E-12
-8.68                     6.855346190655313E-12
-8.700000000000001        6.705640228602412E-12
-8.72                     6.577818544438814E-12
-8.74                     6.466359793066498E-12
-8.76                     6.372494672313123E-12
-8.78                     6.279140630424948E-12
-8.8                      6.203169930808923E-12
-8.82                     6.975720887066701E-12
-8.84                     6.272976496405232E-12
-8.86                     6.041474874526386E-12
-8.88                     5.968777962370092E-12
-8.9                      5.9934304902030244E-12
-8.92                     5.928654036738772E-12
-8.94                     5.885466461381466E-12
-8.96                     5.894511660743231E-12
-8.98                     5.8525836164268664E-12
-9                        5.8683972118698805E-12
-9.02                     5.838980818090371E-12
-9.040000000000001        5.820388124696524E-12
-9.06                     5.851259477941256E-12
-9.08                     5.830746874873596E-12
-9.1                      5.834442357533917E-12
-9.120000000000001        5.855182201756942E-12
-9.14                     5.8788213289823905E-12
-9.16                     5.910664999278283E-12
-9.18                     6.220062609963141E-12
-9.200000000000001        6.108035563377957E-12
-9.22                     6.053281079020016E-12
-9.24                     6.087471678877645E-12
-9.26                     6.142791905266158E-12
-9.28                     7.208753384903338E-12
-9.3                      7.686806245910333E-12
-9.32                     7.501925472458702E-12
-9.34                     7.403113138039308E-12
-9.36                     7.340919691675521E-12
-9.38                     7.33692208397653E-12
-9.4                      7.362184059522503E-12
-9.42                     7.44063705481235E-12
-9.44                     7.521446023646468E-12
-9.46                     7.820669656285328E-12
-9.48                     7.86795334572644E-12
-9.5                      7.961306546232965E-12
-9.52                     8.162079890666433E-12
-9.540000000000001        8.366774439275613E-12
-9.56                     8.586455256598762E-12
-9.58                     8.84018467806631E-12
-9.6                      9.123082950336663E-12
-9.620000000000001        9.427169697655193E-12
-9.64                     9.755791245298737E-12
-9.66                     1.0104746509219296E-11
-9.68                     1.0471916534706465E-11
-9.700000000000001        1.087336592618915E-11
-9.72                     1.129055091743433E-11
-9.74                     1.1729967134394058E-11
-9.76                     1.2608015524987928E-11
-9.78                     1.284773037771593E-11
-9.8                      1.3195672327164976E-11
-9.82                     1.3698342858981159E-11
-9.84                     1.4241426583831447E-11
-9.86                     1.481154537090451E-11
-9.88                     1.540553041101963E-11
-9.9                      1.6064498998251844E-11
-9.92                     1.6794702452049695E-11
-9.94                     1.8591553233839147E-11
-9.96                     2.312576691294094E-11
-9.98                     2.792781534205512E-11
-10                       2.792639055325166E-11
-10.02                    2.4801440068047973E-11
-10.040000000000001       2.2740765403736374E-11
-10.06                    2.251532358680928E-11
-10.08                    7.573034635821763E-11
-10.1                     6.720394889125492E-11
-10.120000000000001       4.727426892950812E-11
-10.14                    4.4944405196448085E-11
-10.16                    5.480177000472618E-11
-10.18                    7.484996894419295E-11
-10.200000000000001       1.0392240844006183E-10
-10.22                    1.3804886023805166E-10
-10.24                    1.7061884029435282E-10
-10.26                    1.950325029828479E-10
-10.28                    2.0735140376025982E-10
-10.3                     4.946636286566143E-10
-10.32                    5.840198652833804E-10
-10.34                    4.783603728757304E-10
-10.36                    4.0108714281141856E-10
-10.38                    3.4596540891842063E-10
-10.4                     3.082164412271992E-10
-10.42                    2.844357889595453E-10
-10.44                    2.7192359465629365E-10
-10.46                    2.691251080429575E-10
-10.48                    2.753255776667045E-10
-10.5                     2.929051266972039E-10
-10.52                    3.1752229319357893E-10
-10.540000000000001       3.9325249434342633E-10
-10.56                    4.3618679116807817E-10
-10.58                    4.858658014831204E-10
-10.6                     5.795368251193052E-10
-10.620000000000001       6.980503924227776E-10
-10.64                    8.760789142482632E-10
-10.66                    1.093457784254927E-9
-10.68                    1.3830086732117602E-9
-10.700000000000001       1.7853569748045058E-9
-10.72                    2.3395514075867673E-9
-10.74                    3.1041829680693573E-9
-10.76                    4.164513521090154E-9
-10.78                    5.647475416778168E-9
-10.8                     7.726141419638778E-9
-10.82                    1.0665913692474809E-8
-10.84                    1.4855575390697412E-8
-10.86                    2.086958839562995E-8
-10.88                    2.9551541652290747E-8
-10.9                     4.217537618947085E-8
-10.92                    6.065857470010386E-8
-10.94                    8.790072523282879E-8
-10.96                    1.2831858554597052E-7
-10.98                    1.8867935939536417E-7
-11                       2.794073507512832E-7
-11.02                    4.1664815123454594E-7
-11.040000000000001       6.255900416128014E-7
-11.06                    9.457345793042417E-7
-11.08                    1.439352625101406E-6
-11.1                     2.205958738974618E-6
-11.120000000000001       3.410482551192821E-6
-11.14                    5.325695198468902E-6
-11.16                    8.393681773164971E-6
-11.18                    1.3351209903061781E-5
-11.185                   1.6943412078418294E-5
